 Gaussian 09, Revision D.01,
 Gaussian 09:  EM64L-G09RevD.01 24-Apr-2013

 ---------------------------------------
 #p B97D/6-31G* opt freq Temperature=400
 ---------------------------------------

 --------
 opt freq
 --------
 Symbolic Z-matrix:
 Charge =  0 Multiplicity = 2

 SCF Done:  E(UB97D) =  -242.328707909     A.U. after   12 cycles
 SCF Done:  E(UB97D) =  -242.328707909     A.U. after    1 cycles
 Optimization completed on the basis of negligible forces.
    -- Stationary point found.
 Normal termination of Gaussian 09 at Fri Mar 18 11:42:58 2016.

 -------------------------------------------------------------------
 #P Geom=AllCheck Guess=TCheck SCRF=Check GenChk UB97D/6-31G(d) Freq
 -------------------------------------------------------------------

 Structure from the checkpoint file:  "Al.chk"
 --------
 opt freq
 --------
 Charge =  0 Multiplicity = 2

                         Standard orientation:
 ---------------------------------------------------------------------
 Center     Atomic      Atomic             Coordinates (Angstroms)
 Number     Number       Type             X           Y           Z
 ---------------------------------------------------------------------
      1         13           0        0.000000    0.000000    0.000000
 ---------------------------------------------------------------------

 SCF Done:  E(UB97D) =  -242.328707909     A.U. after    1 cycles

 Unable to determine electronic state:  an orbital has unidentified symmetry.
 Alpha  occ. eigenvalues --  -55.41505  -3.98914  -2.59814  -2.59814  -2.59116
 Alpha  occ. eigenvalues --   -0.28566  -0.10654
 Alpha virt. eigenvalues --   -0.09531  -0.09531   0.11130   0.17036   0.17301
 Alpha virt. eigenvalues --    0.17301   0.41190   0.41190   0.41887   0.42632
 Alpha virt. eigenvalues --    0.42632   1.99178
  Beta  occ. eigenvalues --  -55.41326  -3.98883  -2.59756  -2.59756  -2.58878
  Beta  occ. eigenvalues --   -0.25948
  Beta virt. eigenvalues --   -0.09026  -0.09026  -0.07667   0.09334   0.16809
  Beta virt. eigenvalues --    0.16809   0.17350   0.43410   0.43410   0.46554
  Beta virt. eigenvalues --    0.46554   0.47827   2.00271

 Mulliken charges and spin densities:
               1          2
     1  Al   0.000000   1.000000
 Sum of Mulliken charges =   0.00000   1.00000

 Dipole moment (field-independent basis, Debye):
    X=              0.0000    Y=              0.0000    Z=              0.0000  Tot=              0.0000
 Quadrupole moment (field-independent basis, Debye-Ang):
   XX=            -12.0847   YY=            -18.5764   ZZ=            -12.0847
   XY=              0.0000   XZ=              0.0000   YZ=              0.0000

  Exact polarizability:  33.425   0.000  39.972   0.000   0.000  33.425
 Approx polarizability:  61.305   0.000  46.233   0.000   0.000  61.305

 - Thermochemistry -
 -------------------
 Temperature   400.000 Kelvin.  Pressure   1.00000 Atm.
 Atom     1 has atomic number 13 and mass  26.98154
 Molecular mass:    26.98154 amu.
 Zero-point vibrational energy          0.0 (Joules/Mol)
                                    0.00000 (Kcal/Mol)
 Vibrational temperatures:
          (Kelvin)

 Zero-point correction=                           0.000000 (Hartree/Particle)
 Thermal correction to Energy=                    0.001900
 Thermal correction to Enthalpy=                  0.003167
 Thermal correction to Gibbs Free Energy=        -0.021471
 Sum of electronic and zero-point Energies=           -242.328708
 Sum of electronic and thermal Energies=              -242.326808
 Sum of electronic and thermal Enthalpies=            -242.325541
 Sum of electronic and thermal Free Energies=         -242.350178

                     E (Thermal)             CV                S
                      KCal/Mol        Cal/Mol-Kelvin    Cal/Mol-Kelvin
 Total                    1.192              2.981             38.651
 Electronic               0.000              0.000              1.377
 Translational            1.192              2.981             37.273
 Rotational               0.000              0.000              0.000
 Vibrational              0.000              0.000              0.000

 Optimization completed.
    -- Stationary point found.
 Normal termination of Gaussian 09 at Fri Mar 18 11:43:01 2016.
