 Gaussian 09, Revision D.01,
 Gaussian 09:  EM64L-G09RevD.01 24-Apr-2013

 -----------------------
 #p B97D/6-31G* opt freq
 -----------------------

 --------
 opt freq
 --------
 Symbolic Z-matrix:
 Charge =  0 Multiplicity = 1

 SCF Done:  E(RB97D) =  -116.564517725     A.U. after   14 cycles
 SCF Done:  E(RB97D) =  -116.569424577     A.U. after   12 cycles
 SCF Done:  E(RB97D) =  -116.569582925     A.U. after   11 cycles
 SCF Done:  E(RB97D) =  -116.569605044     A.U. after    7 cycles
 Optimization completed.
    -- Stationary point found.
 Normal termination of Gaussian 09 at Thu Mar 17 13:19:07 2016.

 -------------------------------------------------------------------
 #P Geom=AllCheck Guess=TCheck SCRF=Check GenChk RB97D/6-31G(d) Freq
 -------------------------------------------------------------------

 Structure from the checkpoint file:  "allene.chk"
 --------
 opt freq
 --------
 Charge =  0 Multiplicity = 1

                         Standard orientation:
 ---------------------------------------------------------------------
 Center     Atomic      Atomic             Coordinates (Angstroms)
 Number     Number       Type             X           Y           Z
 ---------------------------------------------------------------------
      1          6           0        0.000000    0.000000    1.314179
      2          1           0        0.000000    0.933149    1.886367
      3          1           0        0.000000   -0.933149    1.886367
      4          6           0        0.000000    0.000000    0.000000
      5          6           0        0.000000    0.000000   -1.314179
      6          1           0       -0.933149    0.000000   -1.886367
      7          1           0        0.933149    0.000000   -1.886367
 ---------------------------------------------------------------------

 SCF Done:  E(RB97D) =  -116.569605044     A.U. after    1 cycles

 The electronic state is 1-A1.
 Alpha  occ. eigenvalues --   -9.93048  -9.91837  -9.91834  -0.71096  -0.63179
 Alpha  occ. eigenvalues --   -0.46551  -0.39640  -0.38963  -0.38963  -0.22570
 Alpha  occ. eigenvalues --   -0.22570
 Alpha virt. eigenvalues --   -0.00940  -0.00940   0.10256   0.11712   0.18891
 Alpha virt. eigenvalues --    0.18891   0.26918   0.30943   0.40131   0.50936
 Alpha virt. eigenvalues --    0.50936   0.60924   0.61925   0.61925   0.63555

 Mulliken charges:
               1
     1  C   -0.527638
     2  H    0.171309
     3  H    0.171309
     4  C    0.370040
     5  C   -0.527638
     6  H    0.171309
     7  H    0.171309
 Sum of Mulliken charges =   0.00000

 Dipole moment (field-independent basis, Debye):
    X=              0.0000    Y=              0.0000    Z=              0.0000  Tot=              0.0000
 Quadrupole moment (field-independent basis, Debye-Ang):
   XX=            -18.7830   YY=            -18.7830   ZZ=            -15.4124
   XY=              0.0000   XZ=              0.0000   YZ=              0.0000

  Exact polarizability:  17.749   0.000  17.749   0.000   0.000  57.859
 Approx polarizability:  25.465   0.000  25.465   0.000   0.000 121.208

                      1                      2                      3
                      E                      E                      E
 Frequencies --    367.0845               367.0845               825.7080
 Red. masses --      2.5466                 2.5466                 1.3040
 Frc consts  --      0.2022                 0.2022                 0.5238
 IR Inten    --      2.8687                 2.8687                57.4779

                      4                      5                      6
                      E                     B1                      E
 Frequencies --    825.7080               867.7508              1006.9126
 Red. masses --      1.3040                 1.0078                 1.5191
 Frc consts  --      0.5238                 0.4471                 0.9074
 IR Inten    --     57.4779                 0.0000                 0.0035

                      7                      8                      9
                      E                     A1                     B2
 Frequencies --   1006.9126              1091.0853              1417.8645
 Red. masses --      1.5191                 2.4929                 1.0800
 Frc consts  --      0.9074                 1.7486                 1.2793
 IR Inten    --      0.0035                 0.0000                 1.7372

                     10                     11                     12
                     A1                     B2                     B2
 Frequencies --   1471.1467              2017.6145              3061.9725
 Red. masses --      1.3847                 9.4587                 1.0586
 Frc consts  --      1.7657                22.6861                 5.8476
 IR Inten    --      0.0000                46.0360                10.6898

                     13                     14                     15
                     A1                      E                      E
 Frequencies --   3065.8859              3136.1497              3136.1497
 Red. masses --      1.0588                 1.1156                 1.1156
 Frc consts  --      5.8637                 6.4648                 6.4648
 IR Inten    --      0.0000                 7.0123                 7.0123

 - Thermochemistry -
 -------------------
 Temperature   298.150 Kelvin.  Pressure   1.00000 Atm.
 Atom     1 has atomic number  6 and mass  12.00000

 Molecular mass:    40.03130 amu.
 Principal axes and moments of inertia in atomic units:
                           1         2         3
     Eigenvalues --    12.53558 205.51344 205.51344
           X            0.00000   0.82522   0.56482
           Y            0.00000  -0.56482   0.82522
           Z            1.00000   0.00000   0.00000
 This molecule is a prolate symmetric top.
 Rotational symmetry number  4.
 Rotational temperatures (Kelvin)      6.90944     0.42145     0.42145
 Rotational constants (GHZ):         143.96949     8.78162     8.78162
 Zero-point vibrational energy     141548.3 (Joules/Mol)
                                   33.83086 (Kcal/Mol)
 Warning -- explicit consideration of   2 degrees of freedom as
           vibrations may cause significant error
 Vibrational temperatures:    528.15   528.15  1188.01  1188.01  1248.50
          (Kelvin)           1448.72  1448.72  1569.83  2039.99  2116.65
                             2902.89  4405.49  4411.12  4512.21  4512.21

 Zero-point correction=                           0.053913 (Hartree/Particle)
 Thermal correction to Energy=                    0.057745
 Thermal correction to Enthalpy=                  0.058689
 Thermal correction to Gibbs Free Energy=         0.031071
 Sum of electronic and zero-point Energies=           -116.515692
 Sum of electronic and thermal Energies=              -116.511860
 Sum of electronic and thermal Enthalpies=            -116.510916
 Sum of electronic and thermal Free Energies=         -116.538534

                     E (Thermal)             CV                S
                      KCal/Mol        Cal/Mol-Kelvin    Cal/Mol-Kelvin
 Total                   36.236             12.027             58.128
 Electronic               0.000              0.000              0.000
 Translational            0.889              2.981             36.989
 Rotational               0.889              2.981             18.143
 Vibrational             34.458              6.065              2.995
 Vibration     1          0.740              1.540              1.092
 Vibration     2          0.740              1.540              1.092

 Optimization completed.
    -- Stationary point found.
 Normal termination of Gaussian 09 at Thu Mar 17 13:19:12 2016.
