 Gaussian 09, Revision D.01,
 Gaussian 09:  EM64L-G09RevD.01 24-Apr-2013

 ----------------------------------------------------------------------
 #p opt=(noeigentest) freq wb97xd/gen pseudo=read scrf=(smd,solvent=ace
 tonitrile) gfinput
 ----------------------------------------------------------------------

 ---
 ***
 ---
 Symbolic Z-matrix:
 Charge =  0 Multiplicity = 1

 SCF Done:  E(RwB97XD) =  -289.005342730     A.U. after   18 cycles
 SCF Done:  E(RwB97XD) =  -289.005435795     A.U. after   12 cycles
 SCF Done:  E(RwB97XD) =  -289.005463059     A.U. after   12 cycles
 Optimization completed.
    -- Stationary point found.
 Normal termination of Gaussian 09 at Thu Nov  9 13:43:04 2017.

 -------------------------------------------------------------------
 #P Geom=AllCheck Guess=TCheck SCRF=Check GenChk RwB97XD/ChkBas Freq
 -------------------------------------------------------------------

 Structure from the checkpoint file:  "cucn.chk"
 ---
 ***
 ---
 Charge =  0 Multiplicity = 1

                         Standard orientation:
 ---------------------------------------------------------------------
 Center     Atomic      Atomic             Coordinates (Angstroms)
 Number     Number       Type             X           Y           Z
 ---------------------------------------------------------------------
      1         29           0        0.000000    0.778386    0.000000
      2          6           0        0.002939   -1.105753    0.000000
      3          7           0       -0.002519   -2.276954    0.000000
 ---------------------------------------------------------------------

 SCF Done:  E(RwB97XD) =  -289.005463059     A.U. after    1 cycles

 The electronic state is 1-A'.
 Alpha  occ. eigenvalues --  -14.42591 -10.29737  -4.36376  -2.87193  -2.86438
 Alpha  occ. eigenvalues --   -2.86438  -0.96902  -0.52240  -0.42184  -0.40875
 Alpha  occ. eigenvalues --   -0.40875  -0.32279  -0.32277  -0.32174  -0.32174
 Alpha  occ. eigenvalues --   -0.30118
 Alpha virt. eigenvalues --    0.04226   0.06019   0.06019   0.07387   0.10556
 Alpha virt. eigenvalues --    0.10927   0.10928   0.16288   0.16288   0.20081
 Alpha virt. eigenvalues --    0.23320   0.24016   0.24016   0.26966   0.27869

 Mulliken charges:
               1
     1  Cu   0.312821
     2  C    0.334600
     3  N   -0.647421
 Sum of Mulliken charges =   0.00000

 Dipole moment (field-independent basis, Debye):
    X=             -0.0023    Y=             11.0015    Z=              0.0000  Tot=             11.0015
 Quadrupole moment (field-independent basis, Debye-Ang):
   XX=            -23.4595   YY=            -34.1522   ZZ=            -23.4594
   XY=             -0.0222   XZ=              0.0000   YZ=              0.0000

  Exact polarizability:  32.442   0.094  57.642   0.000   0.000  32.441
 Approx polarizability:  20.354   0.090  44.996   0.000   0.000  20.353

                      1                      2                      3
                     A'                     A'                     A'
 Frequencies --    262.1911               394.1067              2238.1007
 Red. masses --     12.6475                16.9986                12.8079
 Frc consts  --      0.5123                 1.5556                37.7997
 IR Inten    --      8.2584                16.7217               114.1353

 - Thermochemistry -
 -------------------
 Temperature   298.150 Kelvin.  Pressure   1.00000 Atm.
 Atom     1 has atomic number 29 and mass  62.92960

 Molecular mass:    88.93267 amu.
 Principal axes and moments of inertia in atomic units:
                           1         2         3
     Eigenvalues --     0.00064 447.22116 447.22180
           X            0.00033   1.00000   0.00000
           Y            1.00000  -0.00033   0.00000
           Z            0.00000   0.00000   1.00000
 This molecule is an asymmetric top.
 Rotational symmetry number  1.
 Rotational temperatures (Kelvin) 135631.43872     0.19367     0.19367
 Rotational constants (GHZ):      ************     4.03546     4.03545
 Zero-point vibrational energy      17312.3 (Joules/Mol)
                                    4.13775 (Kcal/Mol)
 Warning -- explicit consideration of   2 degrees of freedom as
           vibrations may cause significant error
 Vibrational temperatures:    377.23   567.03  3220.12
          (Kelvin)

 Zero-point correction=                           0.006594 (Hartree/Particle)
 Thermal correction to Energy=                    0.010211
 Thermal correction to Enthalpy=                  0.011156
 Thermal correction to Gibbs Free Energy=        -0.014797
 Sum of electronic and zero-point Energies=           -288.998869
 Sum of electronic and thermal Energies=              -288.995252
 Sum of electronic and thermal Enthalpies=            -288.994307
 Sum of electronic and thermal Free Energies=         -289.020260

                     E (Thermal)             CV                S
                      KCal/Mol        Cal/Mol-Kelvin    Cal/Mol-Kelvin
 Total                    6.408              9.191             54.622
 Electronic               0.000              0.000              0.000
 Translational            0.889              2.981             39.368
 Rotational               0.889              2.981             12.622
 Vibrational              4.630              3.230              2.632
 Vibration     1          0.669              1.742              1.647
 Vibration     2          0.761              1.483              0.985

 Optimization completed.
    -- Stationary point found.
 Normal termination of Gaussian 09 at Thu Nov  9 13:43:28 2017.
