 Gaussian 09, Revision D.01,
 Gaussian 09:  EM64L-G09RevD.01 24-Apr-2013

 -----------------------
 #p B97D/6-31G* opt freq
 -----------------------

 --------
 opt freq
 --------
 Symbolic Z-matrix:
 Charge =  0 Multiplicity = 3

 SCF Done:  E(UB97D) =  -93.1118058198     A.U. after   15 cycles
 SCF Done:  E(UB97D) =  -93.1515108559     A.U. after   17 cycles
 SCF Done:  E(UB97D) =  -93.1537787851     A.U. after   13 cycles
 SCF Done:  E(UB97D) =  -93.1537874991     A.U. after    9 cycles
 Optimization completed.
    -- Stationary point found.
 Normal termination of Gaussian 09 at Thu Mar 17 13:22:17 2016.

 -------------------------------------------------------------------
 #P Geom=AllCheck Guess=TCheck SCRF=Check GenChk UB97D/6-31G(d) Freq
 -------------------------------------------------------------------

 Structure from the checkpoint file:  "HCN_T.chk"
 --------
 opt freq
 --------
 Charge =  0 Multiplicity = 3

                         Standard orientation:
 ---------------------------------------------------------------------
 Center     Atomic      Atomic             Coordinates (Angstroms)
 Number     Number       Type             X           Y           Z
 ---------------------------------------------------------------------
      1          6           0        0.000000    0.000000   -0.587021
      2          7           0        0.000000    0.000000    0.740828
      3          1           0        0.000000    0.000000   -1.663671
 ---------------------------------------------------------------------

 SCF Done:  E(UB97D) =  -93.1537874991     A.U. after    1 cycles

 Unable to determine electronic state:  partially filled degenerate orbitals.
 Alpha  occ. eigenvalues --  -14.06848  -9.99036  -0.83023  -0.56472  -0.36019
 Alpha  occ. eigenvalues --   -0.34746  -0.31034  -0.12057
 Alpha virt. eigenvalues --   -0.08171   0.03194   0.23814   0.48018   0.49671
 Alpha virt. eigenvalues --    0.54254   0.60869   0.67889   0.69971   0.74358
 Alpha virt. eigenvalues --    0.88287   1.27952   1.31931   1.34854   1.44270

  Beta  occ. eigenvalues --  -14.05911  -9.98560  -0.76773  -0.52975  -0.32201
  Beta  occ. eigenvalues --   -0.28052
  Beta virt. eigenvalues --   -0.23477  -0.05029  -0.00358   0.05819   0.24641
  Beta virt. eigenvalues --    0.50431   0.51009   0.55876   0.61684   0.71463
  Beta virt. eigenvalues --    0.73364   0.75838   0.89907   1.29054   1.36787

 Mulliken charges and spin densities:
               1          2
     1  C    0.039021   1.045812
     2  N   -0.286155   1.018230
     3  H    0.247134  -0.064042
 Sum of Mulliken charges =   0.00000   2.00000

 Dipole moment (field-independent basis, Debye):
    X=              0.0000    Y=              0.0000    Z=             -2.4153  Tot=              2.4153
 Quadrupole moment (field-independent basis, Debye-Ang):
   XX=            -11.8221   YY=            -11.6306   ZZ=            -10.4014
   XY=              0.0000   XZ=              0.0000   YZ=              0.0000

  Exact polarizability:   8.147   0.000   8.842   0.000   0.000  21.761
 Approx polarizability:  12.237   0.000  12.684   0.000   0.000  47.133

 ******    1 imaginary frequencies (negative Signs) ******

                      1                      2                      3
                     PI                     PI                     SG
 Frequencies --  -1327.0114               658.0951              1495.8968
 Red. masses --      1.2986                 1.2986                 7.0728
 Frc consts  --      1.3473                 0.3314                 9.3249
 IR Inten    --     81.2584                47.3371                 0.1228

                      4
                     SG
 Frequencies --   3362.4566
 Red. masses --      1.1179
 Frc consts  --      7.4468
 IR Inten    --     34.8920

 - Thermochemistry -
 -------------------
 Temperature   298.150 Kelvin.  Pressure   1.00000 Atm.
 Atom     1 has atomic number  6 and mass  12.00000

 Molecular mass:    27.01090 amu.
 Principal axes and moments of inertia in atomic units:
                           1         2         3
     Eigenvalues --     0.00000  51.81146  51.81146
           X            0.00000   0.00000   1.00000
           Y            0.00000   1.00000   0.00000
           Z            1.00000   0.00000   0.00000
 This molecule is a prolate symmetric top.
 Rotational symmetry number  1.
 Rotational temperature (Kelvin)      1.67171
 Rotational constant (GHZ):          34.832857
    1 imaginary frequencies ignored.
 Zero-point vibrational energy      32995.7 (Joules/Mol)
                                    7.88616 (Kcal/Mol)
 Vibrational temperatures:    946.85  2152.26  4837.82
          (Kelvin)

 Zero-point correction=                           0.012567 (Hartree/Particle)
 Thermal correction to Energy=                    0.015064
 Thermal correction to Enthalpy=                  0.016008
 Thermal correction to Gibbs Free Energy=        -0.008062
 Sum of electronic and zero-point Energies=            -93.141220
 Sum of electronic and thermal Energies=               -93.138724
 Sum of electronic and thermal Enthalpies=             -93.137780
 Sum of electronic and thermal Free Energies=          -93.161850

                     E (Thermal)             CV                S
                      KCal/Mol        Cal/Mol-Kelvin    Cal/Mol-Kelvin
 Total                    9.453              5.956             50.660
 Electronic               0.000              0.000              2.183
 Translational            0.889              2.981             35.816
 Rotational               0.592              1.987             12.288
 Vibrational              7.971              0.988              0.372

 Optimization completed.
    -- Stationary point found.
 Normal termination of Gaussian 09 at Thu Mar 17 13:22:20 2016.
