 Gaussian 09, Revision D.01,
 Gaussian 09:  EM64L-G09RevD.01 24-Apr-2013

 -----------------------
 #p B97D/6-31G* opt freq
 -----------------------

 --------
 opt freq
 --------
 Symbolic Z-matrix:
 Charge =  0 Multiplicity = 1

 SCF Done:  E(RB97D) =  -93.3587212690     A.U. after   12 cycles
 SCF Done:  E(RB97D) =  -93.3588510212     A.U. after    8 cycles
 SCF Done:  E(RB97D) =  -93.3588512430     A.U. after    6 cycles
 Optimization completed.
    -- Stationary point found.
 Normal termination of Gaussian 09 at Thu Mar 17 13:22:05 2016.

 -------------------------------------------------------------------
 #P Geom=AllCheck Guess=TCheck SCRF=Check GenChk RB97D/6-31G(d) Freq
 -------------------------------------------------------------------

 Structure from the checkpoint file:  "HCN.chk"
 --------
 opt freq
 --------
 Charge =  0 Multiplicity = 1

                         Standard orientation:
 ---------------------------------------------------------------------
 Center     Atomic      Atomic             Coordinates (Angstroms)
 Number     Number       Type             X           Y           Z
 ---------------------------------------------------------------------
      1          6           0        0.000000    0.000000   -0.506397
      2          7           0        0.000000    0.000000    0.660160
      3          1           0        0.000000    0.000000   -1.582739
 ---------------------------------------------------------------------

 SCF Done:  E(RB97D) =  -93.3588512430     A.U. after    1 cycles

 The electronic state is 1-SG.
 Alpha  occ. eigenvalues --  -14.03547  -9.97101  -0.83657  -0.55127  -0.32588
 Alpha  occ. eigenvalues --   -0.31486  -0.31486
 Alpha virt. eigenvalues --   -0.01549  -0.01549   0.05609   0.25816   0.49234
 Alpha virt. eigenvalues --    0.49234   0.60543   0.64764   0.73078   0.73078
 Alpha virt. eigenvalues --    0.76939   1.01398   1.38923   1.44214   1.44214

 Mulliken charges:
               1
     1  C    0.103594
     2  N   -0.350823
     3  H    0.247230
 Sum of Mulliken charges =   0.00000

 Dipole moment (field-independent basis, Debye):
    X=              0.0000    Y=              0.0000    Z=             -2.8428  Tot=              2.8428
 Quadrupole moment (field-independent basis, Debye-Ang):
   XX=            -11.3721   YY=            -11.3721   ZZ=             -9.4979
   XY=              0.0000   XZ=              0.0000   YZ=              0.0000

  Exact polarizability:   7.862   0.000   7.862   0.000   0.000  20.420
 Approx polarizability:  11.523   0.000  11.523   0.000   0.000  49.114

                      1                      2                      3
                     PI                     PI                     SG
 Frequencies --    738.9845               738.9845              2134.8770
 Red. masses --      1.3416                 1.3416                 5.1616
 Frc consts  --      0.4317                 0.4317                13.8606
 IR Inten    --     36.2091                36.2091                 0.4560

                      4
                     SG
 Frequencies --   3400.5651
 Red. masses --      1.1874
 Frc consts  --      8.0900
 IR Inten    --     37.9482

 - Thermochemistry -
 -------------------
 Temperature   298.150 Kelvin.  Pressure   1.00000 Atm.
 Atom     1 has atomic number  6 and mass  12.00000

 Molecular mass:    27.01090 amu.
 Principal axes and moments of inertia in atomic units:
                           1         2         3
     Eigenvalues --     0.00000  41.47109  41.47109
           X            0.00000   0.00000   1.00000
           Y            0.00000   1.00000   0.00000
           Z            1.00000   0.00000   0.00000
 This molecule is a prolate symmetric top.
 Rotational symmetry number  1.
 Rotational temperature (Kelvin)      2.08853
 Rotational constant (GHZ):          43.518053
 Zero-point vibrational energy      41949.5 (Joules/Mol)
                                   10.02617 (Kcal/Mol)
 Vibrational temperatures:   1063.23  1063.23  3071.61  4892.65
          (Kelvin)

 Zero-point correction=                           0.015978 (Hartree/Particle)
 Thermal correction to Energy=                    0.018534
 Thermal correction to Enthalpy=                  0.019479
 Thermal correction to Gibbs Free Energy=        -0.003418
 Sum of electronic and zero-point Energies=            -93.342874
 Sum of electronic and thermal Energies=               -93.340317
 Sum of electronic and thermal Enthalpies=             -93.339373
 Sum of electronic and thermal Free Energies=          -93.362269

                     E (Thermal)             CV                S
                      KCal/Mol        Cal/Mol-Kelvin    Cal/Mol-Kelvin
 Total                   11.631              6.488             48.189
 Electronic               0.000              0.000              0.000
 Translational            0.889              2.981             35.816
 Rotational               0.592              1.987             11.846
 Vibrational             10.149              1.520              0.527

 Optimization completed.
    -- Stationary point found.
 Normal termination of Gaussian 09 at Thu Mar 17 13:22:08 2016.
