 Gaussian 16, Revision B.01,
 Gaussian 16:  ES64L-G16RevB.01 20-Dec-2017

 --------------------------------
 #b3lyp/6-31g(d) opt freq=noraman
 --------------------------------

 --------------------------
 step 2 (attempt 1) cycle 1
 --------------------------
 Symbolic Z-matrix:
 Charge =  0 Multiplicity = 1

 SCF Done:  E(RB3LYP) =  -158.452504796     A.U. after   11 cycles
 SCF Done:  E(RB3LYP) =  -158.458578256     A.U. after   10 cycles
 SCF Done:  E(RB3LYP) =  -158.458801980     A.U. after    9 cycles
 SCF Done:  E(RB3LYP) =  -158.458811098     A.U. after    8 cycles
 Optimization completed.
    -- Stationary point found.
 Normal termination of Gaussian 16 at Mon Jun  3 14:28:01 2019.

 --------------------------------------------------------------------
 #N Geom=AllCheck Guess=TCheck SCRF=Check GenChk RB3LYP/6-31G(d) Freq
 --------------------------------------------------------------------

 Structure from the checkpoint file:  "/gpfs/summit/scratch/yanfei@colostate.edu/2467349/Gau-190417.chk"
 --------------------------
 step 2 (attempt 1) cycle 1
 --------------------------
 Charge =  0 Multiplicity = 1

                         Standard orientation:
 ---------------------------------------------------------------------
 Center     Atomic      Atomic             Coordinates (Angstroms)
 Number     Number       Type             X           Y           Z
 ---------------------------------------------------------------------
      1          6           0       -0.000006    0.000007    0.372615
      2          6           0       -1.417249    0.359570   -0.095790
      3          1           0       -1.474200    0.374179   -1.192366
      4          1           0       -2.154324   -0.367863    0.265294
      5          1           0       -1.718539    1.350278    0.265527
      6          6           0        1.020028    1.047573   -0.095790
      7          1           0        2.028722    0.812836    0.265125
      8          1           0        1.060795    1.089924   -1.192363
      9          1           0        0.758898    2.049553    0.265685
     10          6           0        0.397223   -1.407144   -0.095790
     11          1           0       -0.309999   -2.163463    0.265669
     12          1           0        0.412841   -1.463764   -1.192363
     13          1           0        1.395822   -1.681711    0.265098
     14          1           0        0.000011   -0.000005    1.473227
 ---------------------------------------------------------------------

 SCF Done:  E(RB3LYP) =  -158.458811098     A.U. after    1 cycles

 The electronic state is 1-A.
 Alpha  occ. eigenvalues --  -10.18497 -10.16857 -10.16857 -10.16855  -0.79478
 Alpha  occ. eigenvalues --   -0.67633  -0.67632  -0.55475  -0.45677  -0.42486
 Alpha  occ. eigenvalues --   -0.42485  -0.37863  -0.37862  -0.35892  -0.32243
 Alpha  occ. eigenvalues --   -0.32243  -0.31758
 Alpha virt. eigenvalues --    0.08600   0.13721   0.15435   0.15435   0.15852
 Alpha virt. eigenvalues --    0.15852   0.17603   0.19674   0.19675   0.22648
 Alpha virt. eigenvalues --    0.22755   0.26000   0.26002   0.51325   0.51327

 Mulliken charges:
               1
     1  C   -0.061009
     2  C   -0.435341
     3  H    0.137306
     4  H    0.138709
     5  H    0.138708
     6  C   -0.435339
     7  H    0.138705
     8  H    0.137305
     9  H    0.138707
    10  C   -0.435330
    11  H    0.138704
    12  H    0.137304
    13  H    0.138703
    14  H    0.122867
 Sum of Mulliken charges =  -0.00000

 Dipole moment (field-independent basis, Debye):
    X=             -0.0000    Y=              0.0000    Z=              0.0854  Tot=              0.0854
 Quadrupole moment (field-independent basis, Debye-Ang):
   XX=            -28.4610   YY=            -28.4610   ZZ=            -27.9691
   XY=             -0.0000   XZ=              0.0000   YZ=             -0.0001

  Exact polarizability:  45.418  -0.000  45.419   0.000  -0.000  40.769
 Approx polarizability:  56.896  -0.000  56.896   0.000  -0.001  57.599

                      1                      2                      3
                      A                      A                      A
 Frequencies --    218.1120               260.3961               261.2125
 Red. masses --      1.0124                 1.0621                 1.0624
 Frc consts  --      0.0284                 0.0424                 0.0427
 IR Inten    --      0.0000                 0.0165                 0.0165

                      4                      5                      6
                      A                      A                      A
 Frequencies --    364.3638               364.5296               431.7108
 Red. masses --      2.0703                 2.0699                 1.9328
 Frc consts  --      0.1619                 0.1621                 0.2122
 IR Inten    --      0.0034                 0.0035                 0.2783

                      7                      8                      9
                      A                      A                      A
 Frequencies --    802.0021               934.2182               934.6318
 Red. masses --      2.8147                 1.2316                 1.2305
 Frc consts  --      1.0667                 0.6333                 0.6333
 IR Inten    --      0.5602                 1.2896                 1.2903

                     10                     11                     12
                      A                      A                      A
 Frequencies --    967.0756               981.5497               981.8520
 Red. masses --      1.2006                 1.7487                 1.7497
 Frc consts  --      0.6615                 0.9926                 0.9938
 IR Inten    --      0.0000                 0.0356                 0.0367

                     13                     14                     15
                      A                      A                      A
 Frequencies --   1205.1466              1205.3807              1225.1456
 Red. masses --      1.7185                 1.7192                 1.9113
 Frc consts  --      1.4705                 1.4717                 1.6902
 IR Inten    --      2.3808                 2.3793                 0.2936

                     16                     17                     18
                      A                      A                      A
 Frequencies --   1377.4418              1377.5184              1429.2564
 Red. masses --      1.3936                 1.3944                 1.2634
 Frc consts  --      1.5579                 1.5590                 1.5205
 IR Inten    --      4.7759                 4.7846                 4.3905

                     19                     20                     21
                      A                      A                      A
 Frequencies --   1429.3724              1457.0672              1513.2501
 Red. masses --      1.2629                 1.2305                 1.0494
 Frc consts  --      1.5202                 1.5392                 1.4159
 IR Inten    --      4.3896                 2.1725                 0.0000

                     22                     23                     24
                      A                      A                      A
 Frequencies --   1519.3648              1519.4474              1537.6325
 Red. masses --      1.0418                 1.0417                 1.0581
 Frc consts  --      1.4170                 1.4170                 1.4739
 IR Inten    --      0.4029                 0.4052                 2.7611

                     25                     26                     27
                      A                      A                      A
 Frequencies --   1537.6643              1544.2734              3011.4714
 Red. masses --      1.0581                 1.0444                 1.0837
 Frc consts  --      1.4741                 1.4674                 5.7904
 IR Inten    --      2.7536                13.6837                18.3891

                     28                     29                     30
                      A                      A                      A
 Frequencies --   3032.1694              3032.2129              3040.0375
 Red. masses --      1.0354                 1.0354                 1.0365
 Frc consts  --      5.6086                 5.6087                 5.6440
 IR Inten    --     34.5564                34.5761                13.3042

                     31                     32                     33
                      A                      A                      A
 Frequencies --   3094.9129              3094.9488              3103.1464
 Red. masses --      1.1016                 1.1016                 1.1034
 Frc consts  --      6.2167                 6.2168                 6.2600
 IR Inten    --      5.7293                 5.6919                 0.0057

                     34                     35                     36
                      A                      A                      A
 Frequencies --   3104.6032              3107.5012              3107.5091
 Red. masses --      1.1004                 1.1020                 1.1020
 Frc consts  --      6.2490                 6.2700                 6.2700
 IR Inten    --    108.3789                62.3259                62.3233

 - Thermochemistry -
 -------------------
 Temperature   298.150 Kelvin.  Pressure   1.00000 Atm.
 Atom     1 has atomic number  6 and mass  12.00000

 Molecular mass:    58.07825 amu.
 Principal axes and moments of inertia in atomic units:
                           1         2         3
     Eigenvalues --   233.27412 233.27892 402.96036
           X            0.99989  -0.01476   0.00000
           Y            0.01476   0.99989  -0.00000
           Z           -0.00000   0.00000   1.00000
 This molecule is an asymmetric top.
 Rotational symmetry number  1.
 Rotational temperatures (Kelvin)      0.37130     0.37129     0.21494
 Rotational constants (GHZ):           7.73657     7.73641     4.47871
 Zero-point vibrational energy     347563.8 (Joules/Mol)
                                   83.06974 (Kcal/Mol)
 Warning -- explicit consideration of   6 degrees of freedom as
           vibrations may cause significant error
 Vibrational temperatures:    313.81   374.65   375.83   524.24   524.48
          (Kelvin)            621.14  1153.90  1344.13  1344.73  1391.41
                             1412.23  1412.67  1733.94  1734.27  1762.71
                             1981.83  1981.94  2056.38  2056.55  2096.39
                             2177.23  2186.03  2186.15  2212.31  2212.36
                             2221.86  4332.84  4362.62  4362.68  4373.94
                             4452.89  4452.94  4464.74  4466.83  4471.00
                             4471.01

 Zero-point correction=                           0.132380 (Hartree/Particle)
 Thermal correction to Energy=                    0.138062
 Thermal correction to Enthalpy=                  0.139007
 Thermal correction to Gibbs Free Energy=         0.104765
 Sum of electronic and zero-point Energies=           -158.326431
 Sum of electronic and thermal Energies=              -158.320749
 Sum of electronic and thermal Enthalpies=            -158.319804
 Sum of electronic and thermal Free Energies=         -158.354046

                     E (Thermal)             CV                S
                      KCal/Mol        Cal/Mol-Kelvin    Cal/Mol-Kelvin
 Total                   86.636             20.030             72.067
 Electronic               0.000              0.000              0.000
 Translational            0.889              2.981             38.098
 Rotational               0.889              2.981             24.598
 Vibrational             84.858             14.068              9.370
 Vibration     1          0.646              1.813              1.975
 Vibration     2          0.668              1.745              1.659
 Vibration     3          0.669              1.744              1.654
 Vibration     4          0.738              1.546              1.103
 Vibration     5          0.738              1.545              1.103
 Vibration     6          0.793              1.401              0.853

 Optimization completed.
    -- Stationary point found.
 Normal termination of Gaussian 16 at Mon Jun  3 14:28:14 2019.
