 Gaussian 16, Revision B.01,
 Gaussian 16:  ES64L-G16RevB.01 20-Dec-2017

 --------------------------------
 #b3lyp/6-31g(d) opt freq=noraman
 --------------------------------

 --------------------------
 step 2 (attempt 1) cycle 1
 --------------------------
 Symbolic Z-matrix:
 Charge =  0 Multiplicity = 1

 SCF Done:  E(RB3LYP) =  -40.5169484093     A.U. after    8 cycles
 SCF Done:  E(RB3LYP) =  -40.5183831835     A.U. after    8 cycles
 Optimization completed.
    -- Stationary point found.
 Normal termination of Gaussian 16 at Mon Jun  3 14:27:48 2019.

 --------------------------------------------------------------------
 #N Geom=AllCheck Guess=TCheck SCRF=Check GenChk RB3LYP/6-31G(d) Freq
 --------------------------------------------------------------------

 Structure from the checkpoint file:  "/gpfs/summit/scratch/yanfei@colostate.edu/2467348/Gau-47241.chk"
 --------------------------
 step 2 (attempt 1) cycle 1
 --------------------------
 Charge =  0 Multiplicity = 1

                         Standard orientation:
 ---------------------------------------------------------------------
 Center     Atomic      Atomic             Coordinates (Angstroms)
 Number     Number       Type             X           Y           Z
 ---------------------------------------------------------------------
      1          6           0        0.000000    0.000000    0.000000
      2          1           0        0.631339    0.631339    0.631339
      3          1           0       -0.631339   -0.631339    0.631339
      4          1           0       -0.631339    0.631339   -0.631339
      5          1           0        0.631339   -0.631339   -0.631339
 ---------------------------------------------------------------------

 SCF Done:  E(RB3LYP) =  -40.5183831835     A.U. after    1 cycles

 The electronic state is 1-A1.
 Alpha  occ. eigenvalues --  -10.16705  -0.69022  -0.38902  -0.38902  -0.38902
 Alpha virt. eigenvalues --    0.11786   0.17646   0.17646   0.17646   0.53333
 Alpha virt. eigenvalues --    0.53333   0.53333   0.89754   0.89754   0.89754
 Alpha virt. eigenvalues --    0.94711   1.09978   1.65657   1.65657   2.24329

 Mulliken charges:
               1
     1  C   -0.628084
     2  H    0.157021
     3  H    0.157021
     4  H    0.157021
     5  H    0.157021
 Sum of Mulliken charges =   0.00000

 Dipole moment (field-independent basis, Debye):
    X=              0.0000    Y=              0.0000    Z=              0.0000  Tot=              0.0000
 Quadrupole moment (field-independent basis, Debye-Ang):
   XX=             -8.2521   YY=             -8.2521   ZZ=             -8.2521
   XY=              0.0000   XZ=              0.0000   YZ=              0.0000

  Exact polarizability:  12.356   0.000  12.356   0.000   0.000  12.356
 Approx polarizability:  14.605   0.000  14.605   0.000  -0.000  14.605

                      1                      2                      3
                     T2                     T2                     T2
 Frequencies --   1373.5436              1373.5436              1373.5436
 Red. masses --      1.1787                 1.1787                 1.1787
 Frc consts  --      1.3103                 1.3103                 1.3103
 IR Inten    --     15.3820                15.3820                15.3820

                      4                      5                      6
                      E                      E                     A1
 Frequencies --   1593.3084              1593.3084              3051.3248
 Red. masses --      1.0078                 1.0078                 1.0078
 Frc consts  --      1.5074                 1.5074                 5.5286
 IR Inten    --      0.0000                 0.0000                 0.0000

                      7                      8                      9
                     T2                     T2                     T2
 Frequencies --   3160.9657              3160.9657              3160.9657
 Red. masses --      1.1019                 1.1019                 1.1019
 Frc consts  --      6.4866                 6.4866                 6.4866
 IR Inten    --     26.4454                26.4454                26.4454

 - Thermochemistry -
 -------------------
 Temperature   298.150 Kelvin.  Pressure   1.00000 Atm.
 Atom     1 has atomic number  6 and mass  12.00000

 Molecular mass:    16.03130 amu.
 Principal axes and moments of inertia in atomic units:
                           1         2         3
     Eigenvalues --    11.47621  11.47621  11.47621
           X            0.09927   0.26396   0.95941
           Y            0.05606   0.96116  -0.27024
           Z            0.99348  -0.08062  -0.08062
 This molecule is a spherical top.
 Rotational symmetry number 12.
 Rotational temperatures (Kelvin)      7.54726     7.54726     7.54726
 Rotational constants (GHZ):         157.25935   157.25935   157.25935
 Zero-point vibrational energy     118678.3 (Joules/Mol)
                                   28.36480 (Kcal/Mol)
 Vibrational temperatures:   1976.22  1976.22  1976.22  2292.42  2292.42
          (Kelvin)           4390.18  4547.92  4547.92  4547.92

 Zero-point correction=                           0.045202 (Hartree/Particle)
 Thermal correction to Energy=                    0.048066
 Thermal correction to Enthalpy=                  0.049010
 Thermal correction to Gibbs Free Energy=         0.027878
 Sum of electronic and zero-point Energies=            -40.473181
 Sum of electronic and thermal Energies=               -40.470317
 Sum of electronic and thermal Enthalpies=             -40.469373
 Sum of electronic and thermal Free Energies=          -40.490505

                     E (Thermal)             CV                S
                      KCal/Mol        Cal/Mol-Kelvin    Cal/Mol-Kelvin
 Total                   30.162              6.417             44.476
 Electronic               0.000              0.000              0.000
 Translational            0.889              2.981             34.261
 Rotational               0.889              2.981             10.139
 Vibrational             28.385              0.455              0.076

 Optimization completed.
    -- Stationary point found.
 Normal termination of Gaussian 16 at Mon Jun  3 14:27:53 2019.
