 Gaussian 16, Revision B.01,
 Gaussian 16:  ES64L-G16RevB.01 20-Dec-2017

 --------------------------------
 #b3lyp/6-31g(d) opt freq=noraman
 --------------------------------

 --------------------------
 step 2 (attempt 1) cycle 1
 --------------------------
 Symbolic Z-matrix:
 Charge =  0 Multiplicity = 1

 SCF Done:  E(RB3LYP) =  -197.766061969     A.U. after   11 cycles
 SCF Done:  E(RB3LYP) =  -197.772806343     A.U. after   10 cycles
 SCF Done:  E(RB3LYP) =  -197.772974461     A.U. after    7 cycles
 SCF Done:  E(RB3LYP) =  -197.772980072     A.U. after    7 cycles
 Optimization completed.
    -- Stationary point found.
 Normal termination of Gaussian 16 at Mon Jun  3 14:28:09 2019.

 --------------------------------------------------------------------
 #N Geom=AllCheck Guess=TCheck SCRF=Check GenChk RB3LYP/6-31G(d) Freq
 --------------------------------------------------------------------

 Structure from the checkpoint file:  "/gpfs/summit/scratch/yanfei@colostate.edu/2467350/Gau-125859.chk"
 --------------------------
 step 2 (attempt 1) cycle 1
 --------------------------
 Charge =  0 Multiplicity = 1

                         Standard orientation:
 ---------------------------------------------------------------------
 Center     Atomic      Atomic             Coordinates (Angstroms)
 Number     Number       Type             X           Y           Z
 ---------------------------------------------------------------------
      1          6           0        0.000007    0.000025    0.000001
      2          6           0        0.556483   -0.069291    1.434676
      3          1           0       -0.253702   -0.145972    2.170559
      4          1           0        1.209378   -0.941450    1.564525
      5          1           0        1.143102    0.826024    1.675702
      6          6           0       -0.909307    1.235593   -0.138935
      7          1           0       -1.322050    1.311731   -1.152672
      8          1           0       -1.751928    1.188111    0.562162
      9          1           0       -0.355440    2.160150    0.066548
     10          6           0        1.167659    0.106805   -0.999006
     11          1           0        1.834164   -0.761462   -0.923555
     12          1           0        0.801672    0.158259   -2.032062
     13          1           0        1.767943    1.005984   -0.812072
     14          6           0       -0.814834   -1.273113   -0.296735
     15          1           0       -1.655565   -1.376801    0.400568
     16          1           0       -1.225201   -1.252631   -1.314078
     17          1           0       -0.192415   -2.172058   -0.205627
 ---------------------------------------------------------------------

 SCF Done:  E(RB3LYP) =  -197.772980072     A.U. after    1 cycles

 The electronic state is 1-A.
 Alpha  occ. eigenvalues --  -10.19239 -10.16767 -10.16767 -10.16767 -10.16765
 Alpha  occ. eigenvalues --   -0.81213  -0.67743  -0.67742  -0.67742  -0.52747
 Alpha  occ. eigenvalues --   -0.44116  -0.44116  -0.44115  -0.39451  -0.39451
 Alpha  occ. eigenvalues --   -0.35854  -0.35854  -0.35853  -0.31474  -0.31474
 Alpha  occ. eigenvalues --   -0.31473
 Alpha virt. eigenvalues --    0.07582   0.13963   0.13963   0.13963   0.16456
 Alpha virt. eigenvalues --    0.16456   0.16457   0.17947   0.17948   0.21853
 Alpha virt. eigenvalues --    0.22623   0.22623   0.22623   0.25178   0.25179

 Mulliken charges:
               1
     1  C    0.103555
     2  C   -0.435389
     3  H    0.136500
     4  H    0.136503
     5  H    0.136501
     6  C   -0.435390
     7  H    0.136501
     8  H    0.136502
     9  H    0.136501
    10  C   -0.435405
    11  H    0.136504
    12  H    0.136507
    13  H    0.136503
    14  C   -0.435386
    15  H    0.136498
    16  H    0.136498
    17  H    0.136498
 Sum of Mulliken charges =  -0.00000

 Dipole moment (field-independent basis, Debye):
    X=              0.0000    Y=              0.0000    Z=              0.0000  Tot=              0.0000
 Quadrupole moment (field-independent basis, Debye-Ang):
   XX=            -35.0504   YY=            -35.0504   ZZ=            -35.0505
   XY=             -0.0000   XZ=             -0.0001   YZ=             -0.0000

  Exact polarizability:  54.079   0.000  54.079   0.000   0.000  54.078
 Approx polarizability:  72.000   0.000  72.000  -0.000   0.000  71.999

                      1                      2                      3
                      A                      A                      A
 Frequencies --    207.0144               276.4685               276.6811
 Red. masses --      1.0078                 1.0303                 1.0303
 Frc consts  --      0.0254                 0.0464                 0.0465
 IR Inten    --      0.0000                 0.0000                 0.0000

                      4                      5                      6
                      A                      A                      A
 Frequencies --    277.3038               328.1731               328.3829
 Red. masses --      1.0303                 2.1903                 2.1908
 Frc consts  --      0.0467                 0.1390                 0.1392
 IR Inten    --      0.0000                 0.0000                 0.0000

                      7                      8                      9
                      A                      A                      A
 Frequencies --    415.2111               415.3431               415.5636
 Red. masses --      2.1152                 2.1149                 2.1156
 Frc consts  --      0.2149                 0.2150                 0.2153
 IR Inten    --      0.0107                 0.0109                 0.0107

                     10                     11                     12
                      A                      A                      A
 Frequencies --    731.6523               933.6444               933.7040
 Red. masses --      3.4816                 2.0055                 2.0058
 Frc consts  --      1.0981                 1.0300                 1.0303
 IR Inten    --      0.0000                 0.5943                 0.5944

                     13                     14                     15
                      A                      A                      A
 Frequencies --    934.0349               970.7363               970.8706
 Red. masses --      2.0050                 1.2022                 1.2022
 Frc consts  --      1.0306                 0.6675                 0.6677
 IR Inten    --      0.5929                 0.0000                 0.0000

                     16                     17                     18
                      A                      A                      A
 Frequencies --    970.9614              1100.4448              1100.6447
 Red. masses --      1.2022                 1.3581                 1.3580
 Frc consts  --      0.6678                 0.9690                 0.9692
 IR Inten    --      0.0000                 0.0000                 0.0000

                     19                     20                     21
                      A                      A                      A
 Frequencies --   1288.9101              1288.9441              1289.2776
 Red. masses --      2.6272                 2.6291                 2.6311
 Frc consts  --      2.5715                 2.5735                 2.5768
 IR Inten    --      5.8810                 5.8851                 5.8924

                     22                     23                     24
                      A                      A                      A
 Frequencies --   1427.1733              1427.3329              1427.4251
 Red. masses --      1.2402                 1.2406                 1.2406
 Frc consts  --      1.4884                 1.4892                 1.4894
 IR Inten    --      5.0502                 5.0328                 5.0474

                     25                     26                     27
                      A                      A                      A
 Frequencies --   1466.0417              1512.3014              1512.3259
 Red. masses --      1.2260                 1.0488                 1.0488
 Frc consts  --      1.5525                 1.4133                 1.4133
 IR Inten    --      0.0004                 0.0000                 0.0000

                     28                     29                     30
                      A                      A                      A
 Frequencies --   1512.3555              1520.7943              1520.8076
 Red. masses --      1.0488                 1.0420                 1.0420
 Frc consts  --      1.4133                 1.4199                 1.4200
 IR Inten    --      0.0000                 0.0000                 0.0001

                     31                     32                     33
                      A                      A                      A
 Frequencies --   1546.5010              1546.6068              1546.7494
 Red. masses --      1.0608                 1.0608                 1.0609
 Frc consts  --      1.4948                 1.4950                 1.4954
 IR Inten    --      7.7719                 7.7769                 7.7592

                     34                     35                     36
                      A                      A                      A
 Frequencies --   3031.7877              3031.7947              3031.8217
 Red. masses --      1.0344                 1.0344                 1.0344
 Frc consts  --      5.6018                 5.6019                 5.6020
 IR Inten    --     37.0674                37.0229                37.0682

                     37                     38                     39
                      A                      A                      A
 Frequencies --   3043.6556              3097.8664              3097.8736
 Red. masses --      1.0363                 1.1033                 1.1033
 Frc consts  --      5.6564                 6.2383                 6.2383
 IR Inten    --      0.0001                 0.0011                 0.0003

                     40                     41                     42
                      A                      A                      A
 Frequencies --   3097.8991              3098.5542              3098.5985
 Red. masses --      1.1033                 1.1019                 1.1019
 Frc consts  --      6.2384                 6.2334                 6.2336
 IR Inten    --      0.0009                 0.0003                 0.0003

                     43                     44                     45
                      A                      A                      A
 Frequencies --   3106.0683              3106.0737              3106.1012
 Red. masses --      1.1012                 1.1012                 1.1012
 Frc consts  --      6.2597                 6.2597                 6.2599
 IR Inten    --     96.5246                96.4753                96.4467

 - Thermochemistry -
 -------------------
 Temperature   298.150 Kelvin.  Pressure   1.00000 Atm.
 Atom     1 has atomic number  6 and mass  12.00000

 Molecular mass:    72.09390 amu.
 Principal axes and moments of inertia in atomic units:
                           1         2         3
     Eigenvalues --   409.25833 409.26866 409.27244
           X            0.99996   0.00869   0.00195
           Y           -0.00867   0.99994  -0.00667
           Z           -0.00200   0.00665   0.99998
 This molecule is an asymmetric top.
 Rotational symmetry number  1.
 Rotational temperatures (Kelvin)      0.21164     0.21163     0.21163
 Rotational constants (GHZ):           4.40978     4.40967     4.40963
 Zero-point vibrational energy     420897.0 (Joules/Mol)
                                  100.59679 (Kcal/Mol)
 Warning -- explicit consideration of   9 degrees of freedom as
           vibrations may cause significant error
 Vibrational temperatures:    297.85   397.78   398.08   398.98   472.17
          (Kelvin)            472.47   597.40   597.59   597.90  1052.68
                             1343.31  1343.39  1343.87  1396.67  1396.87
                             1397.00  1583.29  1583.58  1854.45  1854.50
                             1854.98  2053.38  2053.61  2053.75  2109.31
                             2175.86  2175.90  2175.94  2188.08  2188.10
                             2225.07  2225.22  2225.43  4362.07  4362.08
                             4362.12  4379.14  4457.14  4457.15  4457.19
                             4458.13  4458.19  4468.94  4468.95  4468.99

 Zero-point correction=                           0.160311 (Hartree/Particle)
 Thermal correction to Energy=                    0.167212
 Thermal correction to Enthalpy=                  0.168156
 Thermal correction to Gibbs Free Energy=         0.131204
 Sum of electronic and zero-point Energies=           -197.612669
 Sum of electronic and thermal Energies=              -197.605768
 Sum of electronic and thermal Enthalpies=            -197.604824
 Sum of electronic and thermal Free Energies=         -197.641776

                     E (Thermal)             CV                S
                      KCal/Mol        Cal/Mol-Kelvin    Cal/Mol-Kelvin
 Total                  104.927             25.796             77.772
 Electronic               0.000              0.000              0.000
 Translational            0.889              2.981             38.743
 Rotational               0.889              2.981             25.731
 Vibrational            103.150             19.834             13.298
 Vibration     1          0.641              1.830              2.070
 Vibration     2          0.678              1.717              1.555
 Vibration     3          0.678              1.717              1.554
 Vibration     4          0.678              1.715              1.550
 Vibration     5          0.711              1.619              1.269
 Vibration     6          0.712              1.619              1.268
 Vibration     7          0.779              1.437              0.908
 Vibration     8          0.779              1.437              0.908
 Vibration     9          0.779              1.436              0.907

 Optimization completed.
    -- Stationary point found.
 Normal termination of Gaussian 16 at Mon Jun  3 14:28:30 2019.
