 Gaussian 16, Revision A.03,
 Gaussian 16:  ES64L-G16RevA.03 25-Dec-2016

 ----------------------------------------------------------------------
 #opt=(maxcycles=200) freq=noraman def2tzvpp empiricaldispersion=gd3 m0
 62x scrf=(solvent=Chloroform,smd)
 ----------------------------------------------------------------------

 -------------------
 aminox_subs_conf713
 -------------------
 Symbolic Z-matrix:
 Charge =  0 Multiplicity = 1

 SCF Done:  E(RM062X) =  -361.485429789     A.U. after   15 cycles
 SCF Done:  E(RM062X) =  -361.524491389     A.U. after   13 cycles
 SCF Done:  E(RM062X) =  -361.529261867     A.U. after   13 cycles
 SCF Done:  E(RM062X) =  -361.535463872     A.U. after   13 cycles
 SCF Done:  E(RM062X) =  -361.535666279     A.U. after   12 cycles
 SCF Done:  E(RM062X) =  -361.535754395     A.U. after   10 cycles
 SCF Done:  E(RM062X) =  -361.535757087     A.U. after    9 cycles
 Optimization completed.
    -- Stationary point found.
 Normal termination of Gaussian 16 at Mon Dec 31 22:35:03 2018.

 ---------------------------------------------------------------------
 #N Geom=AllCheck Guess=TCheck SCRF=Check GenChk RM062X/def2TZVPP Freq
 ---------------------------------------------------------------------

 Structure from the checkpoint file:  "/gpfs/summit/scratch/jvalegre@colostate.edu/1580876/Gau-76680.chk"
 -------------------
 aminox_subs_conf713
 -------------------
 Charge =  0 Multiplicity = 1

                         Standard orientation:
 ---------------------------------------------------------------------
 Center     Atomic      Atomic             Coordinates (Angstroms)
 Number     Number       Type             X           Y           Z
 ---------------------------------------------------------------------
      1          8           0        2.709134    0.346247   -0.000003
      2          7           0        1.940547   -0.575051    0.000004
      3          1           0       -2.397567   -1.875124    0.000000
      4          1           0       -1.642671    2.344151    0.000002
      5          1           0       -3.224184    0.451759    0.000000
      6          6           0        0.548017   -0.220319    0.000001
      7          6           0       -2.159447    0.258244   -0.000000
      8          6           0        0.095457    1.097181   -0.000001
      9          6           0       -0.331831   -1.293685   -0.000002
     10          6           0       -1.697745   -1.050786   -0.000000
     11          6           0       -1.266226    1.330136    0.000000
     12          1           0        0.809268    1.909263    0.000001
     13          1           0        0.068905   -2.299300   -0.000001
 ---------------------------------------------------------------------

 SCF Done:  E(RM062X) =  -361.535757087     A.U. after    1 cycles

 The electronic state is 1-A.
 Alpha  occ. eigenvalues --  -19.68529 -14.86789 -10.57635 -10.56011 -10.55882
 Alpha  occ. eigenvalues --  -10.55857 -10.55424 -10.55334  -1.29198  -0.98774
 Alpha  occ. eigenvalues --   -0.90122  -0.86130  -0.79030  -0.70683  -0.67434
 Alpha  occ. eigenvalues --   -0.62123  -0.56676  -0.56200  -0.54435  -0.52101
 Alpha  occ. eigenvalues --   -0.50516  -0.49473  -0.45176  -0.43484  -0.41480
 Alpha  occ. eigenvalues --   -0.32682  -0.32526  -0.30595
 Alpha virt. eigenvalues --   -0.06402   0.00995   0.05060   0.09076   0.11764
 Alpha virt. eigenvalues --    0.12345   0.13701   0.14810   0.15641   0.18875
 Alpha virt. eigenvalues --    0.20393   0.23072   0.23463   0.24199   0.24975

 Mulliken charges:
               1
     1  O   -0.274303
     2  N    0.099573
     3  H    0.166985
     4  H    0.167688
     5  H    0.166484
     6  C    0.062379
     7  C   -0.124906
     8  C   -0.156354
     9  C   -0.139673
    10  C   -0.153475
    11  C   -0.145575
    12  H    0.169234
    13  H    0.161946
 Sum of Mulliken charges =  -0.00000

 Dipole moment (field-independent basis, Debye):
    X=             -4.4684    Y=              0.3293    Z=              0.0000  Tot=              4.4805
 Quadrupole moment (field-independent basis, Debye-Ang):
   XX=            -49.2624   YY=            -40.2659   ZZ=            -48.1531
   XY=              0.7260   XZ=             -0.0000   YZ=              0.0000

  Exact polarizability: 145.584   2.753 110.263  -0.000  -0.000  54.052
 Approx polarizability: 142.143   5.688 112.604  -0.000  -0.000  58.506

                      1                      2                      3
                      A                      A                      A
 Frequencies --    102.8282               249.2724               267.4147
 Red. masses --      7.4623                 6.1523                 6.3736
 Frc consts  --      0.0465                 0.2252                 0.2685
 IR Inten    --      0.1230                 0.1858                 3.5548

                      4                      5                      6
                      A                      A                      A
 Frequencies --    420.1584               456.6909               476.2049
 Red. masses --      2.8649                 8.3170                 3.1858
 Frc consts  --      0.2980                 1.0220                 0.4257
 IR Inten    --      0.0104                 1.3050                 4.8977

                      7                      8                      9
                      A                      A                      A
 Frequencies --    623.6895               685.4301               707.5360
 Red. masses --      6.4329                 7.4806                 1.9787
 Frc consts  --      1.4743                 2.0707                 0.5836
 IR Inten    --      0.1593                22.7560                46.9326

                     10                     11                     12
                      A                      A                      A
 Frequencies --    796.9142               846.1177               882.8480
 Red. masses --      1.5561                 7.0717                 1.2488
 Frc consts  --      0.5823                 2.9829                 0.5735
 IR Inten    --     82.0934                54.3250                 0.0963

                     13                     14                     15
                      A                      A                      A
 Frequencies --    991.3228              1022.2479              1034.8084
 Red. masses --      1.3955                 5.7030                 1.3821
 Frc consts  --      0.8080                 3.5113                 0.8720
 IR Inten    --      6.3033                 1.5259                 0.0001

                     16                     17                     18
                      A                      A                      A
 Frequencies --   1049.5333              1057.6475              1105.9340
 Red. masses --      2.0202                 1.3632                 1.4214
 Frc consts  --      1.3111                 0.8985                 1.0243
 IR Inten    --      9.2446                 0.0616                 9.7218

                     19                     20                     21
                      A                      A                      A
 Frequencies --   1148.2410              1176.2428              1207.9873
 Red. masses --      1.8968                 1.1367                 1.7560
 Frc consts  --      1.4734                 0.9266                 1.5097
 IR Inten    --    193.8410                 3.1249                77.1180

                     22                     23                     24
                      A                      A                      A
 Frequencies --   1342.0779              1345.3255              1500.9286
 Red. masses --      1.3871                 5.8940                 2.4299
 Frc consts  --      1.4720                 6.2852                 3.2252
 IR Inten    --     12.5071                29.2157                34.3778

                     25                     26                     27
                      A                      A                      A
 Frequencies --   1517.9687              1636.7259              1671.5049
 Red. masses --      2.2323                 6.3664                 6.6573
 Frc consts  --      3.0306                10.0483                10.9588
 IR Inten    --     11.7484               243.2104                 2.4130

                     28                     29                     30
                      A                      A                      A
 Frequencies --   1708.4302              3207.3693              3214.5912
 Red. masses --     10.8885                 1.0874                 1.0904
 Frc consts  --     18.7246                 6.5909                 6.6390
 IR Inten    --    153.5430                 0.5193                 0.8815

                     31                     32                     33
                      A                      A                      A
 Frequencies --   3221.4330              3230.7728              3235.8891
 Red. masses --      1.0922                 1.0969                 1.0961
 Frc consts  --      6.6779                 6.7458                 6.7623
 IR Inten    --      5.4235                 3.6588                 6.2743

 - Thermochemistry -
 -------------------
 Temperature   298.150 Kelvin.  Pressure   1.00000 Atm.
 Atom     1 has atomic number  8 and mass  15.99491

 Molecular mass:   107.03711 amu.
 Principal axes and moments of inertia in atomic units:
                           1         2         3
     Eigenvalues --   340.059061086.416551426.47561
           X            1.00000   0.00262  -0.00000
           Y           -0.00262   1.00000   0.00000
           Z            0.00000  -0.00000   1.00000
 This molecule is an asymmetric top.
 Rotational symmetry number  1.
 Rotational temperatures (Kelvin)      0.25470     0.07972     0.06072
 Rotational constants (GHZ):           5.30714     1.66119     1.26517
 Zero-point vibrational energy     258047.0 (Joules/Mol)
                                   61.67471 (Kcal/Mol)
 Warning -- explicit consideration of   6 degrees of freedom as
           vibrations may cause significant error
 Vibrational temperatures:    147.95   358.65   384.75   604.51   657.08
          (Kelvin)            685.15   897.35   986.18  1017.99  1146.58
                             1217.37  1270.22  1426.29  1470.79  1488.86
                             1510.04  1521.72  1591.19  1652.06  1692.35
                             1738.02  1930.95  1935.62  2159.50  2184.02
                             2354.88  2404.92  2458.05  4614.69  4625.08
                             4634.92  4648.36  4655.72

 Zero-point correction=                           0.098285 (Hartree/Particle)
 Thermal correction to Energy=                    0.104445
 Thermal correction to Enthalpy=                  0.105389
 Thermal correction to Gibbs Free Energy=         0.067818
 Sum of electronic and zero-point Energies=           -361.437472
 Sum of electronic and thermal Energies=              -361.431312
 Sum of electronic and thermal Enthalpies=            -361.430368
 Sum of electronic and thermal Free Energies=         -361.467939

                     E (Thermal)             CV                S
                      KCal/Mol        Cal/Mol-Kelvin    Cal/Mol-Kelvin
 Total                   65.540             23.078             79.075
 Electronic               0.000              0.000              0.000
 Translational            0.889              2.981             39.921
 Rotational               0.889              2.981             27.757
 Vibrational             63.763             17.116             11.397
 Vibration     1          0.605              1.947              3.400
 Vibration     2          0.662              1.764              1.736
 Vibration     3          0.673              1.733              1.613
 Vibration     4          0.783              1.426              0.891
 Vibration     5          0.815              1.346              0.776
 Vibration     6          0.833              1.303              0.720

 Optimization completed.
    -- Stationary point found.
 Normal termination of Gaussian 16 at Mon Dec 31 22:40:08 2018.
