 Gaussian 16, Revision A.03,
 Gaussian 16:  ES64L-G16RevA.03 25-Dec-2016

 ----------------------------------------------------------------------
 #opt=(maxcycles=200) freq=noraman def2tzvpp empiricaldispersion=gd3 m0
 62x scrf=(solvent=Chloroform,smd)
 ----------------------------------------------------------------------

 ------------------
 aminox_cat_conf212
 ------------------
 Symbolic Z-matrix:
 Charge =  0 Multiplicity = 1

 SCF Done:  E(RM062X) =  -517.868679522     A.U. after   13 cycles
 SCF Done:  E(RM062X) =  -517.874464050     A.U. after   12 cycles
 SCF Done:  E(RM062X) =  -517.874961930     A.U. after   11 cycles
 SCF Done:  E(RM062X) =  -517.874142736     A.U. after   12 cycles
 SCF Done:  E(RM062X) =  -517.875152259     A.U. after   10 cycles
 SCF Done:  E(RM062X) =  -517.875161478     A.U. after   10 cycles
 SCF Done:  E(RM062X) =  -517.875163919     A.U. after    8 cycles
 SCF Done:  E(RM062X) =  -517.875164832     A.U. after    7 cycles
 SCF Done:  E(RM062X) =  -517.875165201     A.U. after    7 cycles
 Optimization completed.
    -- Stationary point found.
 Normal termination of Gaussian 16 at Mon Dec 31 18:13:40 2018.

 ---------------------------------------------------------------------
 #N Geom=AllCheck Guess=TCheck SCRF=Check GenChk RM062X/def2TZVPP Freq
 ---------------------------------------------------------------------

 Structure from the checkpoint file:  "/gpfs/summit/scratch/jvalegre@colostate.edu/1580876/Gau-170633.chk"
 ------------------
 aminox_cat_conf212
 ------------------
 Charge =  0 Multiplicity = 1

                         Standard orientation:
 ---------------------------------------------------------------------
 Center     Atomic      Atomic             Coordinates (Angstroms)
 Number     Number       Type             X           Y           Z
 ---------------------------------------------------------------------
      1          1           0        1.919260    0.947702   -0.711071
      2          6           0        2.286976    0.025183   -0.272559
      3          6           0        1.426470   -0.944704    0.064829
      4          7           0        0.066260   -0.924679   -0.087323
      5          6           0       -0.626394    0.187271   -0.667472
      6          6           0       -2.063747   -0.338153   -0.846355
      7          6           0       -2.196246   -1.361998    0.282687
      8          6           0       -0.814538   -2.007908    0.328160
      9          1           0       -0.751520   -2.855559   -0.363307
     10          1           0       -0.184963    0.495143   -1.619035
     11          6           0       -0.635779    1.400715    0.253941
     12          1           0       -2.134001   -0.827961   -1.817399
     13          1           0       -2.808435    0.454920   -0.807199
     14          1           0       -2.990286   -2.083690    0.103514
     15          1           0       -2.395307   -0.852926    1.225876
     16          1           0       -0.551736   -2.360176    1.326268
     17          8           0       -0.572013    1.368587    1.452264
     18          8           0       -0.785613    2.538922   -0.438775
     19          1           0       -0.845736    3.276204    0.188405
     20          1           0        1.799314   -1.861057    0.512805
     21          6           0        3.766117   -0.088324   -0.062579
     22          1           0        4.142063    0.697448    0.597673
     23          1           0        4.023771   -1.049216    0.385157
     24          1           0        4.317609   -0.000641   -1.002252
 ---------------------------------------------------------------------

 SCF Done:  E(RM062X) =  -517.875165201     A.U. after    1 cycles

 The electronic state is 1-A.
 Alpha  occ. eigenvalues --  -19.67251 -19.62010 -14.75222 -10.67275 -10.58197
 Alpha  occ. eigenvalues --  -10.56157 -10.55761 -10.54207 -10.53227 -10.51694
 Alpha  occ. eigenvalues --  -10.51061  -1.23969  -1.14440  -1.06499  -0.90873
 Alpha  occ. eigenvalues --   -0.85752  -0.84653  -0.76415  -0.73789  -0.68471
 Alpha  occ. eigenvalues --   -0.66843  -0.61983  -0.60079  -0.58054  -0.57806
 Alpha  occ. eigenvalues --   -0.54189  -0.52910  -0.51060  -0.48475  -0.47991
 Alpha  occ. eigenvalues --   -0.47343  -0.46230  -0.44768  -0.42608  -0.41118
 Alpha  occ. eigenvalues --   -0.41065  -0.40848  -0.39919  -0.39790  -0.36748
 Alpha  occ. eigenvalues --   -0.35022  -0.23554
 Alpha virt. eigenvalues --    0.04588   0.06779   0.07155   0.08762   0.09799
 Alpha virt. eigenvalues --    0.10675   0.11457   0.12331   0.13074   0.14367
 Alpha virt. eigenvalues --    0.15623   0.15792   0.16234   0.16980   0.17583

 Mulliken charges:
               1
     1  H    0.107452
     2  C   -0.190040
     3  C   -0.012802
     4  N   -0.150278
     5  C   -0.100671
     6  C   -0.236981
     7  C   -0.247200
     8  C   -0.138613
     9  H    0.128777
    10  H    0.172071
    11  C    0.344777
    12  H    0.136963
    13  H    0.135998
    14  H    0.127508
    15  H    0.129265
    16  H    0.130944
    17  O   -0.352261
    18  O   -0.334593
    19  H    0.265783
    20  H    0.110380
    21  C   -0.358086
    22  H    0.118652
    23  H    0.095496
    24  H    0.117458
 Sum of Mulliken charges =  -0.00000

 Dipole moment (field-independent basis, Debye):
    X=             -2.1901    Y=             -0.6963    Z=             -1.5973  Tot=              2.7987
 Quadrupole moment (field-independent basis, Debye-Ang):
   XX=            -64.1396   YY=            -57.0969   ZZ=            -72.3685
   XY=              0.3183   XZ=              1.7845   YZ=             -1.7714

  Exact polarizability: 156.994  13.539 137.281  -0.252  -6.809 114.934
 Approx polarizability: 133.147  11.018 128.873  -0.624  -6.927 119.102

                      1                      2                      3
                      A                      A                      A
 Frequencies --     14.7084                61.2245                78.9703
 Red. masses --      3.7974                 4.0403                 5.8675
 Frc consts  --      0.0005                 0.0089                 0.0216
 IR Inten    --      5.8270                 0.9563                 2.7050

                      4                      5                      6
                      A                      A                      A
 Frequencies --    134.4930               143.9311               195.3868
 Red. masses --      3.1480                 1.3431                 2.6317
 Frc consts  --      0.0335                 0.0164                 0.0592
 IR Inten    --      0.1357                 0.5861                 0.2428

                      7                      8                      9
                      A                      A                      A
 Frequencies --    203.5976               250.3095               282.8172
 Red. masses --      1.6843                 2.9452                 2.1445
 Frc consts  --      0.0411                 0.1087                 0.1011
 IR Inten    --      2.5413                 0.4049                 1.1152

                     10                     11                     12
                      A                      A                      A
 Frequencies --    338.1536               352.3741               389.3152
 Red. masses --      3.9746                 3.2898                 4.5251
 Frc consts  --      0.2678                 0.2407                 0.4041
 IR Inten    --      1.6555                 2.7863                 3.5350

                     13                     14                     15
                      A                      A                      A
 Frequencies --    490.3840               559.0461               595.8633
 Red. masses --      4.0862                 1.4133                 1.5641
 Frc consts  --      0.5789                 0.2603                 0.3272
 IR Inten    --     24.4032                72.3685                55.7094

                     16                     17                     18
                      A                      A                      A
 Frequencies --    655.0419               708.8530               770.1647
 Red. masses --      3.5774                 4.3021                 4.0863
 Frc consts  --      0.9044                 1.2736                 1.4281
 IR Inten    --     42.2173                15.4676                32.0856

                     19                     20                     21
                      A                      A                      A
 Frequencies --    799.4992               833.9292               891.4214
 Red. masses --      1.6312                 2.2147                 1.9766
 Frc consts  --      0.6143                 0.9075                 0.9254
 IR Inten    --     34.8755                 6.4307                 0.7564

                     22                     23                     24
                      A                      A                      A
 Frequencies --    907.0718               940.8916               949.8119
 Red. masses --      1.9040                 2.0184                 2.1251
 Frc consts  --      0.9230                 1.0528                 1.1295
 IR Inten    --      7.5545                12.1076                 6.0442

                     25                     26                     27
                      A                      A                      A
 Frequencies --    972.8140               981.2834               998.4505
 Red. masses --      2.0994                 1.1634                 1.8116
 Frc consts  --      1.1706                 0.6601                 1.0640
 IR Inten    --     11.5572                57.6670                 3.9538

                     28                     29                     30
                      A                      A                      A
 Frequencies --   1057.4259              1069.5462              1116.6044
 Red. masses --      1.7210                 1.4246                 1.9242
 Frc consts  --      1.1338                 0.9602                 1.4135
 IR Inten    --     11.5910                 0.1024                 4.4317

                     31                     32                     33
                      A                      A                      A
 Frequencies --   1131.6094              1172.9293              1180.6427
 Red. masses --      2.2397                 2.4938                 1.2672
 Frc consts  --      1.6898                 2.0215                 1.0407
 IR Inten    --     25.8842               389.7293                44.2671

                     34                     35                     36
                      A                      A                      A
 Frequencies --   1201.0351              1246.1195              1257.4377
 Red. masses --      1.6220                 2.0973                 1.2517
 Frc consts  --      1.3785                 1.9188                 1.1661
 IR Inten    --     31.5026                23.2312                24.9966

                     37                     38                     39
                      A                      A                      A
 Frequencies --   1293.1977              1313.6564              1324.3452
 Red. masses --      1.3850                 1.4416                 1.3965
 Frc consts  --      1.3647                 1.4657                 1.4430
 IR Inten    --     12.0629                24.2532                 5.3451

                     40                     41                     42
                      A                      A                      A
 Frequencies --   1329.2969              1344.1414              1353.2863
 Red. masses --      1.4467                 1.4724                 1.4213
 Frc consts  --      1.5061                 1.5673                 1.5337
 IR Inten    --      9.2274                83.2639                 4.3322

                     43                     44                     45
                      A                      A                      A
 Frequencies --   1390.3693              1411.5940              1422.9101
 Red. masses --      1.9390                 1.8950                 1.6701
 Frc consts  --      2.2084                 2.2247                 1.9922
 IR Inten    --    177.1261                89.3396                 8.4737

                     46                     47                     48
                      A                      A                      A
 Frequencies --   1437.2680              1471.5999              1484.7835
 Red. masses --      2.2559                 1.0430                 1.0937
 Frc consts  --      2.7457                 1.3309                 1.4206
 IR Inten    --    192.2569                 8.7681                 7.0600

                     49                     50                     51
                      A                      A                      A
 Frequencies --   1492.9378              1498.0997              1525.7788
 Red. masses --      1.1029                 1.0673                 1.0966
 Frc consts  --      1.4484                 1.4113                 1.5041
 IR Inten    --     10.1278                14.7333                17.8779

                     52                     53                     54
                      A                      A                      A
 Frequencies --   1736.0773              1844.6708              3021.1990
 Red. masses --      5.4217                10.5301                 1.0695
 Frc consts  --      9.6277                21.1117                 5.7517
 IR Inten    --    310.3836               405.5477               121.4150

                     55                     56                     57
                      A                      A                      A
 Frequencies --   3040.5551              3066.3094              3087.3996
 Red. masses --      1.0370                 1.0841                 1.1010
 Frc consts  --      5.6488                 6.0053                 6.1836
 IR Inten    --     71.7798                16.7969                27.5429

                     58                     59                     60
                      A                      A                      A
 Frequencies --   3090.2811              3094.5241              3102.4305
 Red. masses --      1.0726                 1.0620                 1.0857
 Frc consts  --      6.0349                 5.9919                 6.1569
 IR Inten    --     18.2917                20.9866                49.5878

                     61                     62                     63
                      A                      A                      A
 Frequencies --   3122.7607              3144.2894              3154.0835
 Red. masses --      1.1000                 1.1035                 1.1066
 Frc consts  --      6.3201                 6.4277                 6.4861
 IR Inten    --     25.3518                16.0173                33.5508

                     64                     65                     66
                      A                      A                      A
 Frequencies --   3172.5302              3177.3350              3777.1979
 Red. masses --      1.0932                 1.0854                 1.0647
 Frc consts  --      6.4828                 6.4563                 8.9497
 IR Inten    --      0.0822                46.8785               178.8568

 - Thermochemistry -
 -------------------
 Temperature   298.150 Kelvin.  Pressure   1.00000 Atm.
 Atom     1 has atomic number  1 and mass   1.00783

 Molecular mass:   155.09463 amu.
 Principal axes and moments of inertia in atomic units:
                           1         2         3
     Eigenvalues --  1269.633421980.843432770.76209
           X            0.99949   0.03172   0.00396
           Y           -0.03165   0.99935  -0.01753
           Z           -0.00452   0.01739   0.99984
 This molecule is an asymmetric top.
 Rotational symmetry number  1.
 Warning -- assumption of classical behavior for rotation
           may cause significant error
 Rotational temperatures (Kelvin)      0.06822     0.04373     0.03126
 Rotational constants (GHZ):           1.42147     0.91110     0.65135
 Zero-point vibrational energy     542255.7 (Joules/Mol)
                                  129.60221 (Kcal/Mol)
 Warning -- explicit consideration of  15 degrees of freedom as
           vibrations may cause significant error
 Vibrational temperatures:     21.16    88.09   113.62   193.51   207.08
          (Kelvin)            281.12   292.93   360.14   406.91   486.53
                              506.99   560.14   705.55   804.34   857.31
                              942.46  1019.88  1108.10  1150.30  1199.84
                             1282.56  1305.07  1353.73  1366.57  1399.66
                             1411.85  1436.55  1521.40  1538.84  1606.54
                             1628.13  1687.58  1698.68  1728.02  1792.89
                             1809.17  1860.62  1890.06  1905.44  1912.56
                             1933.92  1947.08  2000.43  2030.97  2047.25
                             2067.91  2117.30  2136.27  2148.00  2155.43
                             2195.26  2497.83  2654.07  4346.83  4374.68
                             4411.74  4442.08  4446.23  4452.33  4463.71
                             4492.96  4523.93  4538.02  4564.56  4571.48
                             5434.55

 Zero-point correction=                           0.206534 (Hartree/Particle)
 Thermal correction to Energy=                    0.217965
 Thermal correction to Enthalpy=                  0.218909
 Thermal correction to Gibbs Free Energy=         0.167615
 Sum of electronic and zero-point Energies=           -517.668631
 Sum of electronic and thermal Energies=              -517.657200
 Sum of electronic and thermal Enthalpies=            -517.656256
 Sum of electronic and thermal Free Energies=         -517.707550

                     E (Thermal)             CV                S
                      KCal/Mol        Cal/Mol-Kelvin    Cal/Mol-Kelvin
 Total                  136.775             41.497            107.958
 Electronic               0.000              0.000              0.000
 Translational            0.889              2.981             41.026
 Rotational               0.889              2.981             30.323
 Vibrational            134.998             35.535             36.609
 Vibration     1          0.593              1.986              7.245
 Vibration     2          0.597              1.973              4.417
 Vibration     3          0.600              1.963              3.916
 Vibration     4          0.613              1.919              2.881
 Vibration     5          0.616              1.909              2.751
 Vibration     6          0.636              1.846              2.176
 Vibration     7          0.639              1.835              2.100
 Vibration     8          0.663              1.762              1.728
 Vibration     9          0.682              1.705              1.517
 Vibration    10          0.718              1.599              1.221
 Vibration    11          0.729              1.570              1.156
 Vibration    12          0.757              1.493              1.003
 Vibration    13          0.846              1.271              0.683
 Vibration    14          0.915              1.120              0.526
 Vibration    15          0.954              1.041              0.457

                           ! Non-Optimized Parameters !
 Normal termination of Gaussian 16 at Mon Dec 31 18:39:21 2018.
