 Gaussian 16, Revision A.03,
 Gaussian 16:  ES64L-G16RevA.03 25-Dec-2016

 ----------------------------------------------------------------------
 #opt=(maxcycles=200) freq=noraman def2tzvpp empiricaldispersion=gd3 m0
 62x scrf=(solvent=Chloroform,smd)
 ----------------------------------------------------------------------

 -----------------
 aminox_cat_conf65
 -----------------
 Symbolic Z-matrix:
 Charge =  0 Multiplicity = 1

 SCF Done:  E(RM062X) =  -517.869570483     A.U. after   13 cycles
 SCF Done:  E(RM062X) =  -517.875194904     A.U. after   12 cycles
 SCF Done:  E(RM062X) =  -517.876222285     A.U. after   11 cycles
 SCF Done:  E(RM062X) =  -517.875994682     A.U. after   11 cycles
 SCF Done:  E(RM062X) =  -517.876802367     A.U. after   11 cycles
 SCF Done:  E(RM062X) =  -517.876916335     A.U. after   11 cycles
 SCF Done:  E(RM062X) =  -517.877115533     A.U. after   11 cycles
 SCF Done:  E(RM062X) =  -517.877156637     A.U. after    9 cycles
 SCF Done:  E(RM062X) =  -517.877158626     A.U. after    8 cycles
 SCF Done:  E(RM062X) =  -517.877159536     A.U. after    8 cycles
 SCF Done:  E(RM062X) =  -517.877160211     A.U. after    8 cycles
 SCF Done:  E(RM062X) =  -517.877160497     A.U. after    7 cycles
 SCF Done:  E(RM062X) =  -517.877160603     A.U. after    7 cycles
 Optimization completed.
    -- Stationary point found.
 Normal termination of Gaussian 16 at Mon Dec 31 14:09:30 2018.

 ---------------------------------------------------------------------
 #N Geom=AllCheck Guess=TCheck SCRF=Check GenChk RM062X/def2TZVPP Freq
 ---------------------------------------------------------------------

 Structure from the checkpoint file:  "/gpfs/summit/scratch/jvalegre@colostate.edu/1580876/Gau-78940.chk"
 -----------------
 aminox_cat_conf65
 -----------------
 Charge =  0 Multiplicity = 1

                         Standard orientation:
 ---------------------------------------------------------------------
 Center     Atomic      Atomic             Coordinates (Angstroms)
 Number     Number       Type             X           Y           Z
 ---------------------------------------------------------------------
      1          1           0       -2.885352    0.992057    0.515379
      2          6           0       -2.750828    0.018468    0.057191
      3          6           0       -1.520062   -0.431852   -0.188610
      4          7           0       -0.328017    0.221858    0.117081
      5          6           0        0.865138   -0.078304   -0.676454
      6          6           0        1.583080    1.273788   -0.823551
      7          6           0        1.101875    2.052040    0.400352
      8          6           0       -0.358694    1.634814    0.494817
      9          1           0       -0.784016    1.756604    1.491108
     10          1           0        0.615147   -0.505180   -1.648367
     11          6           0        1.764389   -1.099917    0.020390
     12          1           0        2.662687    1.159173   -0.884191
     13          1           0        1.235441    1.760242   -1.734654
     14          1           0        1.643354    1.731460    1.292583
     15          1           0        1.221117    3.127705    0.293742
     16          1           0       -0.976898    2.202148   -0.212198
     17          8           0        2.752346   -1.550969   -0.493443
     18          8           0        1.387612   -1.454691    1.245727
     19          1           0        0.564993   -0.964145    1.439285
     20          1           0       -1.377573   -1.410726   -0.637406
     21          6           0       -3.984846   -0.772513   -0.246884
     22          1           0       -4.557448   -0.982719    0.659629
     23          1           0       -4.649671   -0.228227   -0.921244
     24          1           0       -3.735631   -1.725255   -0.715009
 ---------------------------------------------------------------------

 SCF Done:  E(RM062X) =  -517.877160603     A.U. after    1 cycles

 The electronic state is 1-A.
 Alpha  occ. eigenvalues --  -19.66610 -19.61161 -14.76758 -10.66899 -10.58675
 Alpha  occ. eigenvalues --  -10.56600 -10.56487 -10.54247 -10.53707 -10.52465
 Alpha  occ. eigenvalues --  -10.52348  -1.23367  -1.14332  -1.07009  -0.91381
 Alpha  occ. eigenvalues --   -0.85998  -0.85041  -0.76852  -0.71823  -0.69299
 Alpha  occ. eigenvalues --   -0.68279  -0.63371  -0.61840  -0.58924  -0.55206
 Alpha  occ. eigenvalues --   -0.54106  -0.53210  -0.51599  -0.49123  -0.48095
 Alpha  occ. eigenvalues --   -0.47296  -0.45918  -0.45704  -0.43360  -0.41998
 Alpha  occ. eigenvalues --   -0.41355  -0.40684  -0.40443  -0.38992  -0.37965
 Alpha  occ. eigenvalues --   -0.34574  -0.25974
 Alpha virt. eigenvalues --    0.04075   0.06470   0.06875   0.09183   0.09382
 Alpha virt. eigenvalues --    0.09837   0.11679   0.12350   0.12738   0.14665
 Alpha virt. eigenvalues --    0.15214   0.15450   0.15991   0.16749   0.17744

 Mulliken charges:
               1
     1  H    0.126512
     2  C   -0.176083
     3  C   -0.022076
     4  N   -0.272188
     5  C   -0.096768
     6  C   -0.207419
     7  C   -0.274036
     8  C   -0.154850
     9  H    0.151479
    10  H    0.158966
    11  C    0.366885
    12  H    0.138102
    13  H    0.137222
    14  H    0.132213
    15  H    0.131610
    16  H    0.137996
    17  O   -0.370763
    18  O   -0.316920
    19  H    0.283730
    20  H    0.131978
    21  C   -0.351964
    22  H    0.123459
    23  H    0.122416
    24  H    0.100499
 Sum of Mulliken charges =  -0.00000

 Dipole moment (field-independent basis, Debye):
    X=             -3.8719    Y=              4.2205    Z=             -0.0770  Tot=              5.7280
 Quadrupole moment (field-independent basis, Debye-Ang):
   XX=            -78.9900   YY=            -68.2932   ZZ=            -66.7163
   XY=             11.1274   XZ=              0.1187   YZ=              1.6654

  Exact polarizability: 167.780  -2.596 124.141  -8.265   3.441 111.947
 Approx polarizability: 145.931  -6.862 116.849  -8.104   2.762 114.309

                      1                      2                      3
                      A                      A                      A
 Frequencies --     42.7878                76.5196               105.7624
 Red. masses --      4.0795                 5.5611                 2.4738
 Frc consts  --      0.0044                 0.0192                 0.0163
 IR Inten    --      7.1302                 1.2097                 2.5403

                      4                      5                      6
                      A                      A                      A
 Frequencies --    141.8479               159.7832               205.0729
 Red. masses --      2.6058                 2.0042                 1.7095
 Frc consts  --      0.0309                 0.0301                 0.0424
 IR Inten    --      1.5608                 0.5132                 8.3395

                      7                      8                      9
                      A                      A                      A
 Frequencies --    221.6075               257.5176               315.2990
 Red. masses --      2.5240                 2.7497                 2.0554
 Frc consts  --      0.0730                 0.1074                 0.1204
 IR Inten    --      4.4351                24.7322                 3.6814

                     10                     11                     12
                      A                      A                      A
 Frequencies --    354.7714               378.9013               395.7316
 Red. masses --      3.2209                 4.1585                 3.5596
 Frc consts  --      0.2388                 0.3518                 0.3284
 IR Inten    --      3.4604                 5.5754                53.8649

                     13                     14                     15
                      A                      A                      A
 Frequencies --    526.3046               583.8225               615.4751
 Red. masses --      4.8763                 1.9883                 4.1932
 Frc consts  --      0.7958                 0.3993                 0.9359
 IR Inten    --      1.4028                 1.9593                 9.3265

                     16                     17                     18
                      A                      A                      A
 Frequencies --    708.9607               751.1129               770.2019
 Red. masses --      4.7097                 1.2000                 2.9214
 Frc consts  --      1.3947                 0.3989                 1.0211
 IR Inten    --      7.9092                91.1345                 5.1800

                     19                     20                     21
                      A                      A                      A
 Frequencies --    822.1567               844.3708               891.4157
 Red. masses --      1.5928                 2.3051                 2.4584
 Frc consts  --      0.6343                 0.9683                 1.1510
 IR Inten    --     20.2519                 4.4315                13.1914

                     22                     23                     24
                      A                      A                      A
 Frequencies --    905.4002               941.9671               946.7604
 Red. masses --      2.2953                 1.6506                 2.3439
 Frc consts  --      1.1086                 0.8629                 1.2378
 IR Inten    --     18.2303                13.3735                10.0126

                     25                     26                     27
                      A                      A                      A
 Frequencies --    968.6210               984.4912               995.0336
 Red. masses --      1.8479                 1.1503                 1.7533
 Frc consts  --      1.0215                 0.6569                 1.0228
 IR Inten    --     10.3385                67.9620                 3.2932

                     28                     29                     30
                      A                      A                      A
 Frequencies --   1058.4409              1068.3620              1111.0768
 Red. masses --      1.7256                 1.4676                 1.8589
 Frc consts  --      1.1390                 0.9869                 1.3520
 IR Inten    --     10.5654                 1.8970                15.5913

                     31                     32                     33
                      A                      A                      A
 Frequencies --   1126.4866              1178.9888              1181.4834
 Red. masses --      2.4139                 1.7026                 1.4515
 Frc consts  --      1.8048                 1.3944                 1.1938
 IR Inten    --      8.2302                23.6495                45.3993

                     34                     35                     36
                      A                      A                      A
 Frequencies --   1211.0087              1214.1368              1264.4516
 Red. masses --      1.7194                 2.2587                 1.2864
 Frc consts  --      1.4856                 1.9617                 1.2118
 IR Inten    --    103.2506                68.7232                 8.5909

                     37                     38                     39
                      A                      A                      A
 Frequencies --   1270.0793              1319.7468              1328.9887
 Red. masses --      1.3974                 1.5259                 1.4742
 Frc consts  --      1.3281                 1.5659                 1.5341
 IR Inten    --     38.0328                23.9200                76.7936

                     40                     41                     42
                      A                      A                      A
 Frequencies --   1333.5451              1342.3739              1352.8075
 Red. masses --      1.7403                 1.7783                 1.4065
 Frc consts  --      1.8235                 1.8880                 1.5166
 IR Inten    --     32.4252               133.7773                20.6899

                     43                     44                     45
                      A                      A                      A
 Frequencies --   1380.7571              1387.7484              1392.8058
 Red. masses --      1.4903                 2.4172                 1.5830
 Frc consts  --      1.6740                 2.7427                 1.8093
 IR Inten    --     89.5591               398.0624                90.6297

                     46                     47                     48
                      A                      A                      A
 Frequencies --   1419.1761              1471.8861              1486.2621
 Red. masses --      1.3941                 1.0432                 1.0888
 Frc consts  --      1.6544                 1.3316                 1.4171
 IR Inten    --     13.2644                10.0795                 8.6866

                     49                     50                     51
                      A                      A                      A
 Frequencies --   1493.0777              1494.3584              1518.3532
 Red. masses --      1.0544                 1.1037                 1.0978
 Frc consts  --      1.3849                 1.4521                 1.4912
 IR Inten    --     11.2078                11.0995                10.3544

                     52                     53                     54
                      A                      A                      A
 Frequencies --   1747.2316              1854.1715              3015.1920
 Red. masses --      5.6506                10.2923                 1.0704
 Frc consts  --     10.1635                20.8480                 5.7334
 IR Inten    --    201.4672               584.8137                50.9209

                     55                     56                     57
                      A                      A                      A
 Frequencies --   3048.8906              3079.6192              3094.4305
 Red. masses --      1.0368                 1.0680                 1.0700
 Frc consts  --      5.6782                 5.9675                 6.0366
 IR Inten    --     51.1013                16.6832                11.7985

                     58                     59                     60
                      A                      A                      A
 Frequencies --   3100.0106              3104.1059              3110.6764
 Red. masses --      1.1008                 1.0788                 1.0936
 Frc consts  --      6.2326                 6.1245                 6.2347
 IR Inten    --     19.6545                32.8575                31.1955

                     61                     62                     63
                      A                      A                      A
 Frequencies --   3131.5033              3151.1470              3160.1013
 Red. masses --      1.1011                 1.0993                 1.1046
 Frc consts  --      6.3620                 6.4312                 6.4992
 IR Inten    --     21.7456                22.0685                15.3062

                     64                     65                     66
                      A                      A                      A
 Frequencies --   3171.8378              3188.4952              3586.6726
 Red. masses --      1.0920                 1.0882                 1.0650
 Frc consts  --      6.4726                 6.5185                 8.0718
 IR Inten    --      6.5760                20.9564               474.9432

 - Thermochemistry -
 -------------------
 Temperature   298.150 Kelvin.  Pressure   1.00000 Atm.
 Atom     1 has atomic number  1 and mass   1.00783

 Molecular mass:   155.09463 amu.
 Principal axes and moments of inertia in atomic units:
                           1         2         3
     Eigenvalues --  1054.673152503.756813103.20874
           X            0.99902   0.04426   0.00094
           Y           -0.04427   0.99888   0.01675
           Z           -0.00020  -0.01677   0.99986
 This molecule is an asymmetric top.
 Rotational symmetry number  1.
 Warning -- assumption of classical behavior for rotation
           may cause significant error
 Rotational temperatures (Kelvin)      0.08212     0.03459     0.02791
 Rotational constants (GHZ):           1.71119     0.72081     0.58157
 Zero-point vibrational energy     543476.5 (Joules/Mol)
                                  129.89401 (Kcal/Mol)
 Warning -- explicit consideration of  15 degrees of freedom as
           vibrations may cause significant error
 Vibrational temperatures:     61.56   110.09   152.17   204.09   229.89
          (Kelvin)            295.05   318.84   370.51   453.64   510.44
                              545.15   569.37   757.23   839.99   885.53
                             1020.04  1080.68  1108.15  1182.90  1214.86
                             1282.55  1302.67  1355.28  1362.18  1393.63
                             1416.46  1431.63  1522.86  1537.13  1598.59
                             1620.76  1696.30  1699.89  1742.37  1746.87
                             1819.26  1827.36  1898.82  1912.12  1918.67
                             1931.38  1946.39  1986.60  1996.66  2003.94
                             2041.88  2117.72  2138.40  2148.21  2150.05
                             2184.57  2513.88  2667.74  4338.19  4386.67
                             4430.89  4452.20  4460.22  4466.12  4475.57
                             4505.53  4533.80  4546.68  4563.57  4587.53
                             5160.42

 Zero-point correction=                           0.206999 (Hartree/Particle)
 Thermal correction to Energy=                    0.218006
 Thermal correction to Enthalpy=                  0.218950
 Thermal correction to Gibbs Free Energy=         0.169674
 Sum of electronic and zero-point Energies=           -517.670161
 Sum of electronic and thermal Energies=              -517.659154
 Sum of electronic and thermal Enthalpies=            -517.658210
 Sum of electronic and thermal Free Energies=         -517.707486

                     E (Thermal)             CV                S
                      KCal/Mol        Cal/Mol-Kelvin    Cal/Mol-Kelvin
 Total                  136.801             40.870            103.710
 Electronic               0.000              0.000              0.000
 Translational            0.889              2.981             41.026
 Rotational               0.889              2.981             30.484
 Vibrational            135.023             34.908             32.201
 Vibration     1          0.595              1.980              5.126
 Vibration     2          0.599              1.965              3.978
 Vibration     3          0.605              1.945              3.345
 Vibration     4          0.615              1.911              2.779
 Vibration     5          0.622              1.892              2.552
 Vibration     6          0.640              1.833              2.087
 Vibration     7          0.648              1.808              1.946
 Vibration     8          0.667              1.750              1.679
 Vibration     9          0.703              1.644              1.334
 Vibration    10          0.731              1.565              1.145
 Vibration    11          0.749              1.515              1.044
 Vibration    12          0.762              1.479              0.978
 Vibration    13          0.881              1.192              0.596
 Vibration    14          0.941              1.066              0.478
 Vibration    15          0.975              0.999              0.424

 Optimization completed.
    -- Stationary point found.
 Normal termination of Gaussian 16 at Mon Dec 31 14:35:08 2018.
