 Gaussian 16, Revision A.03,
 Gaussian 16:  ES64L-G16RevA.03 25-Dec-2016

 ----------------------------------------------------------------------
 # opt=(calcfc,ts,recalc=10,noeigentest,maxcycles=200) freq=noraman scr
 f=(solvent=Chloroform,smd) def2tzvpp empiricaldispersion=gd3 m062x
 ----------------------------------------------------------------------

 -------------------
 Title Card Required
 -------------------
 Symbolic Z-matrix:
 Charge =  0 Multiplicity = 1

 SCF Done:  E(RM062X) =  -879.398607340     A.U. after   15 cycles
 SCF Done:  E(RM062X) =  -879.401773412     A.U. after   14 cycles
 SCF Done:  E(RM062X) =  -879.402045915     A.U. after   14 cycles
 SCF Done:  E(RM062X) =  -879.401151055     A.U. after   14 cycles
 SCF Done:  E(RM062X) =  -879.397983048     A.U. after   15 cycles
 SCF Done:  E(RM062X) =  -879.397231549     A.U. after   13 cycles
 SCF Done:  E(RM062X) =  -879.398769118     A.U. after   15 cycles
 SCF Done:  E(RM062X) =  -879.400069317     A.U. after   15 cycles
 SCF Done:  E(RM062X) =  -879.397380864     A.U. after   15 cycles
 SCF Done:  E(RM062X) =  -879.395980334     A.U. after   14 cycles
 SCF Done:  E(RM062X) =  -879.404326510     A.U. after   12 cycles
 SCF Done:  E(RM062X) =  -879.404412401     A.U. after   12 cycles
 SCF Done:  E(RM062X) =  -879.404436247     A.U. after   11 cycles
 SCF Done:  E(RM062X) =  -879.404443321     A.U. after   11 cycles
 SCF Done:  E(RM062X) =  -879.404434084     A.U. after   11 cycles
 SCF Done:  E(RM062X) =  -879.404444010     A.U. after   10 cycles
 SCF Done:  E(RM062X) =  -879.404444788     A.U. after    8 cycles
 SCF Done:  E(RM062X) =  -879.404444742     A.U. after    7 cycles
 SCF Done:  E(RM062X) =  -879.404444558     A.U. after    6 cycles
 Optimization completed.
    -- Stationary point found.
 Normal termination of Gaussian 16 at Thu Jul 19 07:53:10 2018.

 ---------------------------------------------------------------------
 #N Geom=AllCheck Guess=TCheck SCRF=Check GenChk RM062X/def2TZVPP Freq
 ---------------------------------------------------------------------

 Structure from the checkpoint file:  "kuf5ss5g.chk"
 -------------------
 Title Card Required
 -------------------
 Charge =  0 Multiplicity = 1

                         Standard orientation:
 ---------------------------------------------------------------------
 Center     Atomic      Atomic             Coordinates (Angstroms)
 Number     Number       Type             X           Y           Z
 ---------------------------------------------------------------------
      1          6           0        2.221888   -0.760992    0.450103
      2          6           0        2.506713   -0.941556   -1.053856
      3          8           0        3.576576   -1.474212   -1.323999
      4          8           0        1.613402   -0.591175   -1.891101
      5          1           0        0.439304   -0.007484   -1.559849
      6          1           0        3.167327   -0.505139    0.931372
      7          7           0        1.215173    0.251578    0.804238
      8          6           0        1.395472    1.539587    0.526487
      9          6           0        0.423482    2.495172    0.698721
     10          1           0       -0.458931    2.242815    1.275218
     11          8           0       -0.329432    1.833023   -1.162451
     12          7           0       -0.489353    0.604557   -1.264851
     13          6           0        0.286626   -0.240367    1.838046
     14          1           0       -0.703011   -0.420305    1.415024
     15          1           0        0.194099    0.505426    2.625904
     16          6           0        0.929571   -1.543025    2.305549
     17          1           0        0.190398   -2.244496    2.685964
     18          1           0        1.655355   -1.340100    3.093836
     19          6           0        1.643786   -2.042595    1.053576
     20          1           0        2.421056   -2.775711    1.250236
     21          6           0       -1.666141    0.016335   -0.791185
     22          6           0       -2.666758    0.774393   -0.186543
     23          6           0       -3.791345    0.129418    0.305751
     24          6           0       -3.918465   -1.249902    0.193754
     25          6           0       -2.915119   -1.996236   -0.418964
     26          6           0       -1.784682   -1.369309   -0.910791
     27          1           0       -2.557961    1.847644   -0.118405
     28          1           0       -4.574997    0.707553    0.776880
     29          1           0       -4.799922   -1.744283    0.579140
     30          1           0       -3.016225   -3.069184   -0.511087
     31          1           0       -0.991918   -1.931672   -1.388812
     32          1           0        0.923082   -2.477602    0.356923
     33          6           0        0.636810    3.923404    0.343216
     34          1           0        0.682980    4.552585    1.234528
     35          1           0        1.557639    4.056260   -0.223620
     36          1           0       -0.196107    4.283997   -0.264922
     37          1           0        2.291708    1.779684   -0.036810
 ---------------------------------------------------------------------

 SCF Done:  E(RM062X) =  -879.404444557     A.U. after    1 cycles

 The electronic state is 1-A.
 Alpha  occ. eigenvalues --  -19.69457 -19.58650 -19.56947 -14.85285 -14.80922
 Alpha  occ. eigenvalues --  -10.63413 -10.59241 -10.58976 -10.57873 -10.57792
 Alpha  occ. eigenvalues --  -10.56590 -10.55684 -10.55577 -10.55392 -10.55351
 Alpha  occ. eigenvalues --  -10.55176 -10.54116 -10.54078 -10.53238  -1.27175
 Alpha  occ. eigenvalues --   -1.16926  -1.09648  -1.07483  -0.99358  -0.93398
 Alpha  occ. eigenvalues --   -0.91841  -0.87515  -0.86026  -0.85110  -0.81009
 Alpha  occ. eigenvalues --   -0.78200  -0.71971  -0.71351  -0.69446  -0.69032
 Alpha  occ. eigenvalues --   -0.65295  -0.64526  -0.61747  -0.61586  -0.60527
 Alpha  occ. eigenvalues --   -0.57025  -0.56766  -0.55387  -0.54187  -0.52249
 Alpha  occ. eigenvalues --   -0.51896  -0.51473  -0.50222  -0.50066  -0.49297
 Alpha  occ. eigenvalues --   -0.48485  -0.48305  -0.47522  -0.46633  -0.45309
 Alpha  occ. eigenvalues --   -0.44957  -0.43504  -0.43377  -0.41997  -0.41640
 Alpha  occ. eigenvalues --   -0.41291  -0.40165  -0.39022  -0.37366  -0.33656
 Alpha  occ. eigenvalues --   -0.33303  -0.32603  -0.32269  -0.31456  -0.25384
 Alpha virt. eigenvalues --   -0.07198   0.00681   0.03414   0.05516   0.06743
 Alpha virt. eigenvalues --    0.07992   0.08118   0.09029   0.09490   0.10594
 Alpha virt. eigenvalues --    0.11302   0.11462   0.11969   0.13535   0.13609

 Mulliken charges:
               1
     1  C   -0.158982
     2  C    0.324793
     3  O   -0.456149
     4  O   -0.466054
     5  H    0.255095
     6  H    0.169846
     7  N   -0.040505
     8  C    0.002683
     9  C   -0.116611
    10  H    0.173190
    11  O   -0.296926
    12  N    0.085491
    13  C   -0.213526
    14  H    0.161532
    15  H    0.160435
    16  C   -0.211463
    17  H    0.131600
    18  H    0.139406
    19  C   -0.267463
    20  H    0.149636
    21  C    0.063555
    22  C   -0.154749
    23  C   -0.128716
    24  C   -0.158651
    25  C   -0.140005
    26  C   -0.187900
    27  H    0.180854
    28  H    0.165341
    29  H    0.164645
    30  H    0.167957
    31  H    0.162974
    32  H    0.144712
    33  C   -0.352012
    34  H    0.139225
    35  H    0.117917
    36  H    0.124865
    37  H    0.163962
 Sum of Mulliken charges =  -0.00000

 Dipole moment (field-independent basis, Debye):
    X=             -7.6956    Y=              2.6274    Z=              8.7026  Tot=             11.9105
 Quadrupole moment (field-independent basis, Debye-Ang):
   XX=           -124.8311   YY=           -102.9042   ZZ=           -121.3139
   XY=             15.1919   XZ=             14.5347   YZ=             -3.8810

  Exact polarizability: 341.307  39.640 292.215  23.171  22.492 216.740
 Approx polarizability: 305.959  29.440 283.785  19.378  20.711 231.463

 ******    1 imaginary frequencies (negative Signs) ******

                      1                      2                      3
                      A                      A                      A
 Frequencies --   -429.5394                37.9436                43.3989
 Red. masses --      2.8673                 4.2731                 4.9671
 Frc consts  --      0.3117                 0.0036                 0.0055
 IR Inten    --   1293.1829                 0.1914                 6.0196

                      4                      5                      6
                      A                      A                      A
 Frequencies --     61.6563                73.3091                93.3332
 Red. masses --      4.8427                 3.8042                 7.3142
 Frc consts  --      0.0108                 0.0120                 0.0375
 IR Inten    --      0.1921                 0.8364                 5.3307

                      7                      8                      9
                      A                      A                      A
 Frequencies --    120.8577               149.0781               156.1194
 Red. masses --      3.5860                 1.3465                 2.4380
 Frc consts  --      0.0309                 0.0176                 0.0350
 IR Inten    --     13.4699                26.2576                81.3408

                     10                     11                     12
                      A                      A                      A
 Frequencies --    174.3651               179.4112               220.8076
 Red. masses --      2.9084                 4.0303                 3.7605
 Frc consts  --      0.0521                 0.0764                 0.1080
 IR Inten    --      3.4634                 5.8528               110.6455

                     13                     14                     15
                      A                      A                      A
 Frequencies --    235.2723               260.8008               274.1597
 Red. masses --      3.8641                 3.3162                 2.7042
 Frc consts  --      0.1260                 0.1329                 0.1198
 IR Inten    --      2.8330               129.3321                34.3027

                     16                     17                     18
                      A                      A                      A
 Frequencies --    298.5558               338.9370               359.8735
 Red. masses --      4.8448                 5.0695                 3.9327
 Frc consts  --      0.2544                 0.3431                 0.3001
 IR Inten    --     16.8331               178.9782                12.7916

                     19                     20                     21
                      A                      A                      A
 Frequencies --    385.5224               400.0731               420.7111
 Red. masses --      4.9474                 3.3791                 2.9281
 Frc consts  --      0.4332                 0.3187                 0.3054
 IR Inten    --      9.8992                44.0604                 3.5223

                     22                     23                     24
                      A                      A                      A
 Frequencies --    450.2682               475.1838               501.7588
 Red. masses --      4.6967                 3.6122                 3.5312
 Frc consts  --      0.5610                 0.4806                 0.5238
 IR Inten    --     21.8126               440.3220                 4.7604

                     25                     26                     27
                      A                      A                      A
 Frequencies --    510.6804               584.7369               591.1669
 Red. masses --      3.7220                 3.4567                 2.5831
 Frc consts  --      0.5719                 0.6964                 0.5319
 IR Inten    --    180.0879                34.1718                18.1133

                     28                     29                     30
                      A                      A                      A
 Frequencies --    624.8076               688.2595               713.5670
 Red. masses --      6.3996                 3.4234                 1.8972
 Frc consts  --      1.4720                 0.9555                 0.5692
 IR Inten    --      0.7176                 0.3626                45.7056

                     31                     32                     33
                      A                      A                      A
 Frequencies --    734.7086               767.9330               792.2698
 Red. masses --      5.1742                 4.3887                 4.4333
 Frc consts  --      1.6456                 1.5249                 1.6395
 IR Inten    --     39.6101               183.1827               137.1473

                     34                     35                     36
                      A                      A                      A
 Frequencies --    795.7786               836.6628               867.9144
 Red. masses --      1.7792                 2.5705                 1.3324
 Frc consts  --      0.6638                 1.0601                 0.5913
 IR Inten    --     62.2451                37.1088                83.0510

                     37                     38                     39
                      A                      A                      A
 Frequencies --    874.2087               892.1006               919.0605
 Red. masses --      1.2533                 2.1659                 1.6701
 Frc consts  --      0.5643                 1.0156                 0.8312
 IR Inten    --      3.1357                14.5756                24.3923

                     40                     41                     42
                      A                      A                      A
 Frequencies --    935.7839               960.0448               960.6109
 Red. masses --      2.1666                 1.4378                 2.1502
 Frc consts  --      1.1178                 0.7808                 1.1690
 IR Inten    --     26.3809                 8.4222                 2.2807

                     43                     44                     45
                      A                      A                      A
 Frequencies --    969.7708               986.6721              1002.3919
 Red. masses --      1.7499                 1.3258                 2.1854
 Frc consts  --      0.9696                 0.7605                 1.2938
 IR Inten    --     42.8217               107.1898                88.6087

                     46                     47                     48
                      A                      A                      A
 Frequencies --   1017.3186              1023.1254              1037.1293
 Red. masses --      5.3479                 1.3696                 1.6990
 Frc consts  --      3.2610                 0.8447                 1.0767
 IR Inten    --      0.3735                 0.6787                78.2067

                     49                     50                     51
                      A                      A                      A
 Frequencies --   1043.4525              1052.1772              1053.5028
 Red. masses --      1.3374                 1.9719                 1.7942
 Frc consts  --      0.8580                 1.2862                 1.1732
 IR Inten    --      0.7165                47.8345                14.8692

                     52                     53                     54
                      A                      A                      A
 Frequencies --   1068.5589              1112.9130              1129.2917
 Red. masses --      2.0432                 1.4422                 2.3022
 Frc consts  --      1.3745                 1.0525                 1.7298
 IR Inten    --    330.2552                63.5716                 8.6285

                     55                     56                     57
                      A                      A                      A
 Frequencies --   1132.6831              1172.2777              1185.4016
 Red. masses --      2.9358                 1.1330                 1.1481
 Frc consts  --      2.2192                 0.9173                 0.9505
 IR Inten    --     21.2248                 1.6548                15.9067

                     58                     59                     60
                      A                      A                      A
 Frequencies --   1189.5998              1206.4016              1217.6857
 Red. masses --      1.6759                 2.0161                 1.4833
 Frc consts  --      1.3974                 1.7288                 1.2958
 IR Inten    --     19.3505                29.5287                 5.6459

                     61                     62                     63
                      A                      A                      A
 Frequencies --   1268.4860              1274.6238              1281.5662
 Red. masses --      1.4590                 1.8996                 1.7323
 Frc consts  --      1.3832                 1.8183                 1.6763
 IR Inten    --    520.5307                37.4233               174.4113

                     64                     65                     66
                      A                      A                      A
 Frequencies --   1294.6130              1325.8750              1331.8257
 Red. masses --      1.3776                 1.4180                 1.6491
 Frc consts  --      1.3603                 1.4687                 1.7235
 IR Inten    --     38.0460                15.3483                99.0713

                     67                     68                     69
                      A                      A                      A
 Frequencies --   1340.8524              1344.1131              1354.2271
 Red. masses --      1.3288                 3.0963                 1.3996
 Frc consts  --      1.4076                 3.2959                 1.5123
 IR Inten    --     25.8956                32.4969                 8.7168

                     70                     71                     72
                      A                      A                      A
 Frequencies --   1356.6455              1368.9496              1386.0030
 Red. masses --      1.6087                 1.6606                 1.4913
 Frc consts  --      1.7444                 1.8335                 1.6879
 IR Inten    --     49.8950               280.5361                29.6685

                     73                     74                     75
                      A                      A                      A
 Frequencies --   1408.5307              1417.1751              1453.7111
 Red. masses --      1.8708                 1.9050                 2.0587
 Frc consts  --      2.1868                 2.2541                 2.5633
 IR Inten    --    434.6385               344.2982               115.2602

                     76                     77                     78
                      A                      A                      A
 Frequencies --   1468.2672              1480.3931              1490.7651
 Red. masses --      1.0557                 1.0935                 1.1171
 Frc consts  --      1.3409                 1.4120                 1.4627
 IR Inten    --      7.1288                11.8421                10.6109

                     79                     80                     81
                      A                      A                      A
 Frequencies --   1496.1191              1498.2480              1507.0120
 Red. masses --      1.7810                 1.7453                 1.1398
 Frc consts  --      2.3488                 2.3082                 1.5251
 IR Inten    --     48.2989                92.2095                18.3701

                     82                     83                     84
                      A                      A                      A
 Frequencies --   1525.7930              1559.3151              1630.8337
 Red. masses --      2.2199                 2.5465                 1.7402
 Frc consts  --      3.0449                 3.6480                 2.7269
 IR Inten    --    113.2476               910.1591               132.0758

                     85                     86                     87
                      A                      A                      A
 Frequencies --   1659.0393              1664.9592              1703.3989
 Red. masses --      4.4370                 5.9153                 3.1858
 Frc consts  --      7.1954                 9.6613                 5.4463
 IR Inten    --    212.8907                35.1898               859.9363

                     88                     89                     90
                      A                      A                      A
 Frequencies --   1785.5628              3052.3844              3070.9712
 Red. masses --      3.3712                 1.0366                 1.0713
 Frc consts  --      6.3327                 5.6906                 5.9526
 IR Inten    --    223.3129                32.0143                 8.2238

                     91                     92                     93
                      A                      A                      A
 Frequencies --   3085.6755              3088.5366              3093.2833
 Red. masses --      1.0623                 1.0627                 1.0813
 Frc consts  --      5.9596                 5.9726                 6.0961
 IR Inten    --     23.5825                10.3809                40.6491

                     94                     95                     96
                      A                      A                      A
 Frequencies --   3109.4185              3133.7920              3142.2722
 Red. masses --      1.1002                 1.1041                 1.1021
 Frc consts  --      6.2671                 6.3884                 6.4114
 IR Inten    --      6.2822                10.4923                14.2395

                     97                     98                     99
                      A                      A                      A
 Frequencies --   3152.5783              3165.2497              3186.1825
 Red. masses --      1.1032                 1.0988                 1.0930
 Frc consts  --      6.4601                 6.4860                 6.5373
 IR Inten    --     12.6606                21.1433                 7.4438

                    100                    101                    102
                      A                      A                      A
 Frequencies --   3201.6262              3205.8951              3212.7431
 Red. masses --      1.0873                 1.0888                 1.0891
 Frc consts  --      6.5668                 6.5935                 6.6230
 IR Inten    --     11.5026                 1.6240                 1.4017

                    103                    104                    105
                      A                      A                      A
 Frequencies --   3221.6946              3231.3347              3238.6356
 Red. masses --      1.0928                 1.0966                 1.0953
 Frc consts  --      6.6825                 6.7463                 6.7687
 IR Inten    --      5.9312                 8.3389                 4.2252

 - Thermochemistry -
 -------------------
 Temperature   298.150 Kelvin.  Pressure   1.00000 Atm.
 Atom     1 has atomic number  6 and mass  12.00000

 Molecular mass:   262.13174 amu.
 Principal axes and moments of inertia in atomic units:
                           1         2         3
     Eigenvalues --  3670.252685453.605026691.23026
           X            0.99975   0.02058   0.00845
           Y           -0.02048   0.99972  -0.01161
           Z           -0.00868   0.01144   0.99990
 This molecule is an asymmetric top.
 Rotational symmetry number  1.
 Warning -- assumption of classical behavior for rotation
           may cause significant error
 Rotational temperatures (Kelvin)      0.02360     0.01588     0.01294
 Rotational constants (GHZ):           0.49172     0.33093     0.26972
    1 imaginary frequencies ignored.
 Zero-point vibrational energy     799292.2 (Joules/Mol)
                                  191.03542 (Kcal/Mol)
 Warning -- explicit consideration of  26 degrees of freedom as
           vibrations may cause significant error
 Vibrational temperatures:     54.59    62.44    88.71   105.48   134.29
          (Kelvin)            173.89   214.49   224.62   250.87   258.13
                              317.69   338.50   375.23   394.45   429.56
                              487.65   517.78   554.68   575.62   605.31
                              647.84   683.68   721.92   734.76   841.31
                              850.56   898.96   990.25  1026.66  1057.08
                             1104.88  1139.90  1144.95  1203.77  1248.74
                             1257.79  1283.53  1322.32  1346.38  1381.29
                             1382.10  1395.28  1419.60  1442.22  1463.69
                             1472.05  1492.20  1501.30  1513.85  1515.76
                             1537.42  1601.23  1624.80  1629.68  1686.65
                             1705.53  1711.57  1735.74  1751.98  1825.07
                             1833.90  1843.89  1862.66  1907.64  1916.20
                             1929.19  1933.88  1948.43  1951.91  1969.61
                             1994.15  2026.56  2039.00  2091.57  2112.51
                             2129.96  2144.88  2152.58  2155.64  2168.25
                             2195.28  2243.51  2346.41  2386.99  2395.50
                             2450.81  2569.03  4391.70  4418.44  4439.60
                             4443.72  4450.54  4473.76  4508.83  4521.03
                             4535.86  4554.09  4584.21  4606.43  4612.57
                             4622.42  4635.30  4649.17  4659.67

 Zero-point correction=                           0.304434 (Hartree/Particle)
 Thermal correction to Energy=                    0.321629
 Thermal correction to Enthalpy=                  0.322573
 Thermal correction to Gibbs Free Energy=         0.259094
 Sum of electronic and zero-point Energies=           -879.100010
 Sum of electronic and thermal Energies=              -879.082816
 Sum of electronic and thermal Enthalpies=            -879.081872
 Sum of electronic and thermal Free Energies=         -879.145350

                     E (Thermal)             CV                S
                      KCal/Mol        Cal/Mol-Kelvin    Cal/Mol-Kelvin
 Total                  201.825             66.263            133.602
 Electronic               0.000              0.000              0.000
 Translational            0.889              2.981             42.591
 Rotational               0.889              2.981             33.260
 Vibrational            200.048             60.302             57.752
 Vibration     1          0.594              1.982              5.364
 Vibration     2          0.595              1.980              5.098
 Vibration     3          0.597              1.973              4.403
 Vibration     4          0.599              1.967              4.062
 Vibration     5          0.602              1.954              3.589
 Vibration     6          0.609              1.932              3.087
 Vibration     7          0.618              1.904              2.684
 Vibration     8          0.620              1.896              2.596
 Vibration     9          0.627              1.874              2.388
 Vibration    10          0.629              1.868              2.335
 Vibration    11          0.648              1.809              1.952
 Vibration    12          0.655              1.787              1.838
 Vibration    13          0.669              1.744              1.656
 Vibration    14          0.676              1.721              1.570
 Vibration    15          0.692              1.676              1.425
 Vibration    16          0.719              1.598              1.217
 Vibration    17          0.734              1.555              1.123
 Vibration    18          0.754              1.501              1.017
 Vibration    19          0.766              1.470              0.962
 Vibration    20          0.783              1.425              0.890
 Vibration    21          0.809              1.360              0.795
 Vibration    22          0.832              1.305              0.723
 Vibration    23          0.857              1.246              0.654
 Vibration    24          0.866              1.226              0.632
 Vibration    25          0.942              1.064              0.477
 Vibration    26          0.949              1.051              0.465

 Optimization completed.
    -- Stationary point found.
 Normal termination of Gaussian 16 at Thu Jul 19 09:41:20 2018.
