 Gaussian 16, Revision A.03,
 Gaussian 16:  ES64L-G16RevA.03 25-Dec-2016

 ----------------------------------------------------------------------
 #opt=(maxcycles=200) freq=noraman def2tzvpp empiricaldispersion=gd3 m0
 62x scrf=(solvent=Chloroform,smd)
 ----------------------------------------------------------------------

 ------------------
 aminox_cat_conf280
 ------------------
 Symbolic Z-matrix:
 Charge =  0 Multiplicity = 1

 SCF Done:  E(RM062X) =  -517.869374057     A.U. after   13 cycles
 SCF Done:  E(RM062X) =  -517.875168521     A.U. after   12 cycles
 SCF Done:  E(RM062X) =  -517.876153018     A.U. after   11 cycles
 SCF Done:  E(RM062X) =  -517.876062301     A.U. after   11 cycles
 SCF Done:  E(RM062X) =  -517.876801191     A.U. after   11 cycles
 SCF Done:  E(RM062X) =  -517.877119918     A.U. after   11 cycles
 SCF Done:  E(RM062X) =  -517.877263028     A.U. after   11 cycles
 SCF Done:  E(RM062X) =  -517.877298016     A.U. after    9 cycles
 SCF Done:  E(RM062X) =  -517.877307731     A.U. after    9 cycles
 SCF Done:  E(RM062X) =  -517.877308897     A.U. after    8 cycles
 SCF Done:  E(RM062X) =  -517.877309146     A.U. after    8 cycles
 SCF Done:  E(RM062X) =  -517.877308722     A.U. after    7 cycles
 SCF Done:  E(RM062X) =  -517.877308477     A.U. after    7 cycles
 SCF Done:  E(RM062X) =  -517.877309104     A.U. after    8 cycles
 SCF Done:  E(RM062X) =  -517.877308410     A.U. after    8 cycles
 Optimization completed.
    -- Stationary point found.
 Normal termination of Gaussian 16 at Mon Dec 31 13:08:09 2018.

 ---------------------------------------------------------------------
 #N Geom=AllCheck Guess=TCheck SCRF=Check GenChk RM062X/def2TZVPP Freq
 ---------------------------------------------------------------------

 Structure from the checkpoint file:  "/gpfs/summit/scratch/jvalegre@colostate.edu/1580876/Gau-54762.chk"
 ------------------
 aminox_cat_conf280
 ------------------
 Charge =  0 Multiplicity = 1

                         Standard orientation:
 ---------------------------------------------------------------------
 Center     Atomic      Atomic             Coordinates (Angstroms)
 Number     Number       Type             X           Y           Z
 ---------------------------------------------------------------------
      1          1           0        1.885422    0.998747   -0.722912
      2          6           0        2.282425    0.086377   -0.289020
      3          6           0        1.452852   -0.847574    0.179238
      4          7           0        0.062106   -0.780482    0.213110
      5          6           0       -0.629811    0.200250   -0.608851
      6          6           0       -2.018078   -0.423039   -0.878438
      7          6           0       -2.142263   -1.516076    0.184589
      8          6           0       -0.713550   -2.020925    0.298294
      9          1           0       -0.501525   -2.533378    1.235809
     10          1           0       -0.101352    0.396148   -1.545522
     11          6           0       -0.755106    1.545499    0.100758
     12          1           0       -2.814586    0.316958   -0.843840
     13          1           0       -2.013601   -0.868550   -1.872299
     14          1           0       -2.843917   -2.297784   -0.097136
     15          1           0       -2.461028   -1.089321    1.137041
     16          1           0       -0.472196   -2.695030   -0.531721
     17          8           0       -1.090772    2.550884   -0.464642
     18          8           0       -0.501953    1.531583    1.407744
     19          1           0       -0.217028    0.626359    1.634545
     20          1           0        1.850284   -1.751278    0.630923
     21          6           0        3.772677   -0.040004   -0.225099
     22          1           0        4.219269    0.017223   -1.220172
     23          1           0        4.068172   -0.988909    0.223514
     24          1           0        4.214270    0.765401    0.366351
 ---------------------------------------------------------------------

 SCF Done:  E(RM062X) =  -517.877308410     A.U. after    1 cycles

 The electronic state is 1-A.
 Alpha  occ. eigenvalues --  -19.66568 -19.61150 -14.76734 -10.66937 -10.58446
 Alpha  occ. eigenvalues --  -10.56755 -10.56518 -10.54343 -10.53712 -10.52557
 Alpha  occ. eigenvalues --  -10.52311  -1.23312  -1.14288  -1.07099  -0.91324
 Alpha  occ. eigenvalues --   -0.86011  -0.85155  -0.76869  -0.71772  -0.68924
 Alpha  occ. eigenvalues --   -0.67988  -0.65176  -0.60687  -0.59130  -0.55185
 Alpha  occ. eigenvalues --   -0.53951  -0.53164  -0.51356  -0.48932  -0.48091
 Alpha  occ. eigenvalues --   -0.47329  -0.46367  -0.45871  -0.43249  -0.41894
 Alpha  occ. eigenvalues --   -0.41609  -0.40890  -0.39803  -0.39015  -0.37900
 Alpha  occ. eigenvalues --   -0.34683  -0.25950
 Alpha virt. eigenvalues --    0.04611   0.05877   0.06679   0.09271   0.09649
 Alpha virt. eigenvalues --    0.10048   0.11483   0.12146   0.13055   0.14544
 Alpha virt. eigenvalues --    0.15016   0.15483   0.16290   0.16745   0.17481

 Mulliken charges:
               1
     1  H    0.121875
     2  C   -0.152682
     3  C   -0.019920
     4  N   -0.265408
     5  C   -0.143438
     6  C   -0.199257
     7  C   -0.264447
     8  C   -0.130856
     9  H    0.141936
    10  H    0.158499
    11  C    0.365525
    12  H    0.136210
    13  H    0.138235
    14  H    0.130346
    15  H    0.128471
    16  H    0.138152
    17  O   -0.366688
    18  O   -0.313326
    19  H    0.283391
    20  H    0.123817
    21  C   -0.359935
    22  H    0.124672
    23  H    0.099237
    24  H    0.125590
 Sum of Mulliken charges =  -0.00000

 Dipole moment (field-independent basis, Debye):
    X=              0.2878    Y=             -6.4395    Z=              0.1434  Tot=              6.4475
 Quadrupole moment (field-independent basis, Debye-Ang):
   XX=            -63.4388   YY=            -77.3942   ZZ=            -66.9174
   XY=              7.1883   XZ=              0.4442   YZ=             -1.4316

  Exact polarizability: 152.157   9.802 136.042  -0.447  -9.271 113.996
 Approx polarizability: 130.302   7.100 130.024  -1.389 -10.139 117.466

                      1                      2                      3
                      A                      A                      A
 Frequencies --     37.0715                76.9501               109.8881
 Red. masses --      4.5214                 5.9610                 3.1956
 Frc consts  --      0.0037                 0.0208                 0.0227
 IR Inten    --      5.8851                 0.6246                 2.3915

                      4                      5                      6
                      A                      A                      A
 Frequencies --    133.2119               140.7381               208.8598
 Red. masses --      2.1728                 1.6031                 1.5914
 Frc consts  --      0.0227                 0.0187                 0.0409
 IR Inten    --      0.2223                 0.2478                 1.8360

                      7                      8                      9
                      A                      A                      A
 Frequencies --    222.5664               273.6504               290.0637
 Red. masses --      3.2000                 2.7974                 2.0408
 Frc consts  --      0.0934                 0.1234                 0.1012
 IR Inten    --     10.3541                17.1272                 2.8227

                     10                     11                     12
                      A                      A                      A
 Frequencies --    348.8685               377.7204               416.3638
 Red. masses --      3.7307                 3.3157                 4.6239
 Frc consts  --      0.2675                 0.2787                 0.4723
 IR Inten    --      8.6249                22.2466                 1.6835

                     13                     14                     15
                      A                      A                      A
 Frequencies --    508.5080               588.1629               632.9317
 Red. masses --      4.6733                 1.9614                 4.0348
 Frc consts  --      0.7120                 0.3998                 0.9523
 IR Inten    --     11.0594                 1.1430                 8.8550

                     16                     17                     18
                      A                      A                      A
 Frequencies --    690.9906               712.5793               766.0558
 Red. masses --      3.8806                 1.1301                 4.6755
 Frc consts  --      1.0917                 0.3381                 1.6166
 IR Inten    --      0.5838               104.9826                 7.3068

                     19                     20                     21
                      A                      A                      A
 Frequencies --    824.1459               836.0776               900.0712
 Red. masses --      1.7450                 2.0782                 1.9430
 Frc consts  --      0.6983                 0.8559                 0.9274
 IR Inten    --     13.4081                 7.7764                 4.4917

                     22                     23                     24
                      A                      A                      A
 Frequencies --    904.8561               948.3658               952.7863
 Red. masses --      2.2980                 2.0960                 1.9723
 Frc consts  --      1.1086                 1.1107                 1.0549
 IR Inten    --     26.0563                11.8981                 9.6645

                     25                     26                     27
                      A                      A                      A
 Frequencies --    975.5097               985.8146               997.6347
 Red. masses --      2.1290                 1.1411                 1.7700
 Frc consts  --      1.1937                 0.6534                 1.0379
 IR Inten    --      1.7096                67.5602                 5.3107

                     28                     29                     30
                      A                      A                      A
 Frequencies --   1066.0523              1071.4642              1111.7799
 Red. masses --      1.6017                 1.8370                 1.8094
 Frc consts  --      1.0725                 1.2426                 1.3177
 IR Inten    --      9.6528                 9.4501                 9.3571

                     31                     32                     33
                      A                      A                      A
 Frequencies --   1126.8761              1176.1237              1197.4638
 Red. masses --      2.3824                 1.3557                 1.5772
 Frc consts  --      1.7824                 1.1049                 1.3325
 IR Inten    --     17.6221                46.7307                25.3824

                     34                     35                     36
                      A                      A                      A
 Frequencies --   1210.6936              1226.0076              1264.9036
 Red. masses --      2.5089                 1.7386                 1.2743
 Frc consts  --      2.1667                 1.5397                 1.2012
 IR Inten    --     55.1004                94.7180                24.6270

                     37                     38                     39
                      A                      A                      A
 Frequencies --   1297.4749              1316.8899              1328.0087
 Red. masses --      1.3364                 2.2363                 1.4035
 Frc consts  --      1.3255                 2.2850                 1.4583
 IR Inten    --      2.2517                72.2117                21.4739

                     40                     41                     42
                      A                      A                      A
 Frequencies --   1338.0094              1343.5312              1353.2450
 Red. masses --      1.4117                 1.3861                 1.3930
 Frc consts  --      1.4891                 1.4741                 1.5030
 IR Inten    --     70.0394                47.3012                19.1101

                     43                     44                     45
                      A                      A                      A
 Frequencies --   1369.7314              1386.7453              1403.1380
 Red. masses --      1.5947                 2.7391                 1.6606
 Frc consts  --      1.7628                 3.1034                 1.9263
 IR Inten    --     84.0082               465.5668                51.5613

                     46                     47                     48
                      A                      A                      A
 Frequencies --   1418.0013              1471.6063              1485.1006
 Red. masses --      1.3528                 1.0428                 1.0976
 Frc consts  --      1.6027                 1.3305                 1.4263
 IR Inten    --      8.0331                10.2373                 7.0917

                     49                     50                     51
                      A                      A                      A
 Frequencies --   1492.1529              1497.9224              1521.1780
 Red. masses --      1.0572                 1.0965                 1.1014
 Frc consts  --      1.3869                 1.4495                 1.5016
 IR Inten    --     13.0752                10.7182                12.2371

                     52                     53                     54
                      A                      A                      A
 Frequencies --   1744.7689              1854.6159              3023.6847
 Red. masses --      5.6111                10.0736                 1.0701
 Frc consts  --     10.0640                20.4146                 5.7645
 IR Inten    --    142.8648               548.4542                83.9626

                     55                     56                     57
                      A                      A                      A
 Frequencies --   3049.0580              3065.9526              3083.4484
 Red. masses --      1.0366                 1.0840                 1.0666
 Frc consts  --      5.6778                 6.0037                 5.9750
 IR Inten    --     48.5461                10.5566                20.2231

                     58                     59                     60
                      A                      A                      A
 Frequencies --   3100.7007              3100.9405              3122.6418
 Red. masses --      1.0636                 1.0996                 1.0949
 Frc consts  --      6.0250                 6.2296                 6.2901
 IR Inten    --     18.9163                26.4101                31.2684

                     61                     62                     63
                      A                      A                      A
 Frequencies --   3130.6153              3149.3484              3157.3220
 Red. masses --      1.1012                 1.1006                 1.1059
 Frc consts  --      6.3586                 6.4318                 6.4953
 IR Inten    --     21.2796                17.5968                24.7258

                     64                     65                     66
                      A                      A                      A
 Frequencies --   3175.2036              3179.9172              3625.4611
 Red. masses --      1.0937                 1.0866                 1.0648
 Frc consts  --      6.4966                 6.4734                 8.2463
 IR Inten    --      4.7816                31.5323               307.2939

 - Thermochemistry -
 -------------------
 Temperature   298.150 Kelvin.  Pressure   1.00000 Atm.
 Atom     1 has atomic number  1 and mass   1.00783

 Molecular mass:   155.09463 amu.
 Principal axes and moments of inertia in atomic units:
                           1         2         3
     Eigenvalues --  1290.149141993.828632797.28334
           X            0.99871   0.05072  -0.00000
           Y           -0.05072   0.99865  -0.01159
           Z           -0.00058   0.01157   0.99993
 This molecule is an asymmetric top.
 Rotational symmetry number  1.
 Warning -- assumption of classical behavior for rotation
           may cause significant error
 Rotational temperatures (Kelvin)      0.06713     0.04344     0.03096
 Rotational constants (GHZ):           1.39886     0.90516     0.64518
 Zero-point vibrational energy     543692.1 (Joules/Mol)
                                  129.94553 (Kcal/Mol)
 Warning -- explicit consideration of  14 degrees of freedom as
           vibrations may cause significant error
 Vibrational temperatures:     53.34   110.71   158.10   191.66   202.49
          (Kelvin)            300.50   320.22   393.72   417.34   501.94
                              543.46   599.05   731.63   846.24   910.65
                              994.18  1025.24  1102.18  1185.76  1202.93
                             1295.00  1301.89  1364.49  1370.85  1403.54
                             1418.37  1435.37  1533.81  1541.60  1599.60
                             1621.32  1692.18  1722.88  1741.92  1763.95
                             1819.91  1866.78  1894.71  1910.71  1925.10
                             1933.04  1947.02  1970.74  1995.22  2018.80
                             2040.19  2117.31  2136.73  2146.88  2155.18
                             2188.64  2510.33  2668.38  4350.41  4386.91
                             4411.22  4436.39  4461.22  4461.56  4492.79
                             4504.26  4531.21  4542.68  4568.41  4575.19
                             5216.23

 Zero-point correction=                           0.207081 (Hartree/Particle)
 Thermal correction to Energy=                    0.218146
 Thermal correction to Enthalpy=                  0.219090
 Thermal correction to Gibbs Free Energy=         0.169609
 Sum of electronic and zero-point Energies=           -517.670227
 Sum of electronic and thermal Energies=              -517.659163
 Sum of electronic and thermal Enthalpies=            -517.658218
 Sum of electronic and thermal Free Energies=         -517.707700

                     E (Thermal)             CV                S
                      KCal/Mol        Cal/Mol-Kelvin    Cal/Mol-Kelvin
 Total                  136.889             40.916            104.142
 Electronic               0.000              0.000              0.000
 Translational            0.889              2.981             41.026
 Rotational               0.889              2.981             30.354
 Vibrational            135.111             34.954             32.761
 Vibration     1          0.594              1.982              5.410
 Vibration     2          0.599              1.965              3.967
 Vibration     3          0.606              1.941              3.271
 Vibration     4          0.613              1.920              2.899
 Vibration     5          0.615              1.913              2.794
 Vibration     6          0.642              1.827              2.054
 Vibration     7          0.648              1.807              1.938
 Vibration     8          0.676              1.722              1.573
 Vibration     9          0.686              1.692              1.474
 Vibration    10          0.726              1.578              1.171
 Vibration    11          0.748              1.518              1.048
 Vibration    12          0.780              1.435              0.904
 Vibration    13          0.864              1.231              0.637
 Vibration    14          0.945              1.057              0.470

 Optimization completed.
    -- Stationary point found.
 Normal termination of Gaussian 16 at Mon Dec 31 13:34:17 2018.
