 Gaussian 16, Revision A.03,
 Gaussian 16:  ES64L-G16RevA.03 25-Dec-2016

 ----------------------------------------------------------------------
 # opt=(calcfc,ts,recalc=2,noeigentest,maxcycles=200,maxstep=10) freq=n
 oraman scrf=(solvent=Chloroform,smd) def2tzvpp empiricaldispersion=gd3
  m062x
 ----------------------------------------------------------------------

 -------------------
 Title Card Required
 -------------------
 Symbolic Z-matrix:
 Charge =  0 Multiplicity = 1

 SCF Done:  E(RM062X) =  -879.398820046     A.U. after   15 cycles
 SCF Done:  E(RM062X) =  -879.401956504     A.U. after   13 cycles
 SCF Done:  E(RM062X) =  -879.403676269     A.U. after   13 cycles
 SCF Done:  E(RM062X) =  -879.404371111     A.U. after   13 cycles
 SCF Done:  E(RM062X) =  -879.404297992     A.U. after   13 cycles
 SCF Done:  E(RM062X) =  -879.404470195     A.U. after   12 cycles
 SCF Done:  E(RM062X) =  -879.404676058     A.U. after   13 cycles
 SCF Done:  E(RM062X) =  -879.404912410     A.U. after   13 cycles
 SCF Done:  E(RM062X) =  -879.404902625     A.U. after   13 cycles
 SCF Done:  E(RM062X) =  -879.404917623     A.U. after   13 cycles
 SCF Done:  E(RM062X) =  -879.405087863     A.U. after   12 cycles
 SCF Done:  E(RM062X) =  -879.404998206     A.U. after   12 cycles
 SCF Done:  E(RM062X) =  -879.404665402     A.U. after   13 cycles
 SCF Done:  E(RM062X) =  -879.405117459     A.U. after   12 cycles
 SCF Done:  E(RM062X) =  -879.405133109     A.U. after   11 cycles
 SCF Done:  E(RM062X) =  -879.405136732     A.U. after   11 cycles
 SCF Done:  E(RM062X) =  -879.405135447     A.U. after   11 cycles
 SCF Done:  E(RM062X) =  -879.405137951     A.U. after   11 cycles
 SCF Done:  E(RM062X) =  -879.405137997     A.U. after    8 cycles
 Optimization completed.
    -- Stationary point found.
 Normal termination of Gaussian 16 at Wed Jul 25 06:49:22 2018.

 ---------------------------------------------------------------------
 #N Geom=AllCheck Guess=TCheck SCRF=Check GenChk RM062X/def2TZVPP Freq
 ---------------------------------------------------------------------

 Structure from the checkpoint file:  "ku800ddg.chk"
 -------------------
 Title Card Required
 -------------------
 Charge =  0 Multiplicity = 1

                         Standard orientation:
 ---------------------------------------------------------------------
 Center     Atomic      Atomic             Coordinates (Angstroms)
 Number     Number       Type             X           Y           Z
 ---------------------------------------------------------------------
      1          1           0       -0.669700    2.217768    1.198058
      2          6           0        0.137643    2.587884    0.576934
      3          6           0        1.242965    1.796328    0.380589
      4          7           0        1.293017    0.502549    0.686017
      5          6           0        2.463917   -0.327329    0.365928
      6          6           0        2.475486   -1.367334    1.488049
      7          6           0        0.989498   -1.546283    1.791064
      8          6           0        0.459914   -0.121253    1.729302
      9          1           0       -0.599797   -0.062892    1.488402
     10          1           0        3.355798    0.298942    0.374555
     11          6           0        2.445743   -0.994774   -1.036730
     12          1           0        2.976603   -2.278104    1.174575
     13          1           0        2.989192   -0.963954    2.361674
     14          1           0        0.794986   -2.010934    2.754720
     15          1           0        0.517961   -2.150886    1.013374
     16          1           0        0.629035    0.411503    2.668896
     17          8           0        3.386523   -1.744626   -1.265414
     18          8           0        1.509196   -0.707403   -1.849397
     19          1           0        0.376805   -0.060828   -1.535472
     20          8           0       -0.555554    1.747835   -1.248252
     21          7           0       -0.590922    0.506425   -1.262819
     22          1           0       -4.633706    0.358174    0.863164
     23          1           0       -2.724670   -3.332259   -0.181308
     24          1           0       -4.613917   -2.111739    0.850348
     25          6           0       -1.694345   -0.158446   -0.715915
     26          6           0       -3.792523   -1.563113    0.409582
     27          6           0       -1.675752   -1.554116   -0.733067
     28          6           0       -2.757156    0.540822   -0.145701
     29          6           0       -3.803214   -0.173015    0.417761
     30          6           0       -2.730032   -2.250654   -0.170227
     31          1           0       -0.839304   -2.069107   -1.189213
     32          1           0       -2.756260    1.621664   -0.158336
     33          1           0        2.072872    2.172068   -0.208431
     34          6           0        0.107821    4.021742    0.181686
     35          1           0       -0.798175    4.232865   -0.391195
     36          1           0        0.097094    4.675979    1.056073
     37          1           0        0.969408    4.279713   -0.433318
 ---------------------------------------------------------------------

 SCF Done:  E(RM062X) =  -879.405137997     A.U. after    1 cycles

 The electronic state is 1-A.
 Alpha  occ. eigenvalues --  -19.69495 -19.58777 -19.56942 -14.85285 -14.80774
 Alpha  occ. eigenvalues --  -10.63411 -10.59216 -10.58915 -10.57974 -10.57711
 Alpha  occ. eigenvalues --  -10.56482 -10.55609 -10.55552 -10.55324 -10.55247
 Alpha  occ. eigenvalues --  -10.55137 -10.53874 -10.53634 -10.53274  -1.27227
 Alpha  occ. eigenvalues --   -1.17016  -1.09575  -1.07584  -0.99291  -0.93286
 Alpha  occ. eigenvalues --   -0.91766  -0.87461  -0.85966  -0.84912  -0.80963
 Alpha  occ. eigenvalues --   -0.78107  -0.71925  -0.71133  -0.69454  -0.68927
 Alpha  occ. eigenvalues --   -0.64930  -0.64547  -0.62496  -0.61613  -0.59948
 Alpha  occ. eigenvalues --   -0.57045  -0.56502  -0.55499  -0.53357  -0.52956
 Alpha  occ. eigenvalues --   -0.52012  -0.51056  -0.50799  -0.50150  -0.49172
 Alpha  occ. eigenvalues --   -0.48467  -0.48053  -0.47578  -0.46008  -0.45297
 Alpha  occ. eigenvalues --   -0.44920  -0.43403  -0.43183  -0.41791  -0.41400
 Alpha  occ. eigenvalues --   -0.41173  -0.40475  -0.38685  -0.37825  -0.33886
 Alpha  occ. eigenvalues --   -0.33477  -0.32419  -0.32182  -0.31308  -0.25243
 Alpha virt. eigenvalues --   -0.07220   0.00825   0.03466   0.05100   0.07003
 Alpha virt. eigenvalues --    0.08059   0.08750   0.09006   0.09379   0.10877
 Alpha virt. eigenvalues --    0.11188   0.11831   0.12371   0.13563   0.13762

 Mulliken charges:
               1
     1  H    0.175701
     2  C   -0.144765
     3  C    0.030835
     4  N   -0.070266
     5  C   -0.117287
     6  C   -0.221504
     7  C   -0.249908
     8  C   -0.214333
     9  H    0.147041
    10  H    0.149893
    11  C    0.332982
    12  H    0.140120
    13  H    0.133436
    14  H    0.139075
    15  H    0.137910
    16  H    0.186095
    17  O   -0.456787
    18  O   -0.467992
    19  H    0.256080
    20  O   -0.296048
    21  N    0.080448
    22  H    0.165708
    23  H    0.169629
    24  H    0.164439
    25  C    0.083831
    26  C   -0.155855
    27  C   -0.216520
    28  C   -0.163278
    29  C   -0.129402
    30  C   -0.134596
    31  H    0.176300
    32  H    0.181256
    33  H    0.156599
    34  C   -0.348718
    35  H    0.123863
    36  H    0.139677
    37  H    0.116340
 Sum of Mulliken charges =  -0.00000

 Dipole moment (field-independent basis, Debye):
    X=             -6.5334    Y=              4.0809    Z=              8.2322  Tot=             11.2742
 Quadrupole moment (field-independent basis, Debye-Ang):
   XX=           -119.6134   YY=           -105.6073   ZZ=           -121.3108
   XY=             17.7972   XZ=             11.6047   YZ=             -6.0582

  Exact polarizability: 336.985  42.338 307.981  17.803  20.727 208.709
 Approx polarizability: 300.832  29.157 296.421  14.294  19.697 225.635

 ******    1 imaginary frequencies (negative Signs) ******

                      1                      2                      3
                      A                      A                      A
 Frequencies --   -426.4133                38.9640                50.3832
 Red. masses --      2.9965                 6.9478                 3.9837
 Frc consts  --      0.3210                 0.0062                 0.0060
 IR Inten    --   1383.5036                 3.2661                 3.6965

                      4                      5                      6
                      A                      A                      A
 Frequencies --     62.4692                80.6170                95.2497
 Red. masses --      4.8789                 3.8191                 9.8590
 Frc consts  --      0.0112                 0.0146                 0.0527
 IR Inten    --      0.8032                 2.4132                 6.5642

                      7                      8                      9
                      A                      A                      A
 Frequencies --    143.0707               147.1019               152.2430
 Red. masses --      2.8641                 1.9925                 1.7109
 Frc consts  --      0.0345                 0.0254                 0.0234
 IR Inten    --      9.0575                20.0880                36.7260

                     10                     11                     12
                      A                      A                      A
 Frequencies --    157.5724               183.5366               235.6560
 Red. masses --      2.7269                 4.5546                 4.0816
 Frc consts  --      0.0399                 0.0904                 0.1335
 IR Inten    --     46.2527                 9.5329                 2.5578

                     13                     14                     15
                      A                      A                      A
 Frequencies --    249.9294               261.7680               290.7246
 Red. masses --      3.2183                 3.7468                 5.6194
 Frc consts  --      0.1184                 0.1513                 0.2798
 IR Inten    --    139.3535               159.4420                26.9280

                     16                     17                     18
                      A                      A                      A
 Frequencies --    318.3031               355.8051               373.7042
 Red. masses --      2.3401                 3.8824                 3.6416
 Frc consts  --      0.1397                 0.2896                 0.2996
 IR Inten    --     28.9190               101.2285                 6.8241

                     19                     20                     21
                      A                      A                      A
 Frequencies --    380.2208               403.4199               422.3661
 Red. masses --      4.6251                 3.5511                 2.9275
 Frc consts  --      0.3939                 0.3405                 0.3077
 IR Inten    --      9.4881                64.2879                 4.5175

                     22                     23                     24
                      A                      A                      A
 Frequencies --    452.8948               491.0234               502.6781
 Red. masses --      5.2387                 3.6349                 3.8951
 Frc consts  --      0.6331                 0.5164                 0.5799
 IR Inten    --     12.0524               532.7615                66.5403

                     25                     26                     27
                      A                      A                      A
 Frequencies --    544.9334               583.4973               586.5217
 Red. masses --      3.6659                 2.1843                 4.5539
 Frc consts  --      0.6414                 0.4382                 0.9230
 IR Inten    --     26.3403                11.7671                19.4294

                     28                     29                     30
                      A                      A                      A
 Frequencies --    624.6383               641.8945               713.6054
 Red. masses --      6.3705                 4.7668                 1.8919
 Frc consts  --      1.4645                 1.1572                 0.5676
 IR Inten    --      0.6773                43.7049                46.9171

                     31                     32                     33
                      A                      A                      A
 Frequencies --    715.8661               768.8114               795.8896
 Red. masses --      4.0993                 4.0866                 1.8475
 Frc consts  --      1.2377                 1.4232                 0.6895
 IR Inten    --     36.8425               201.2083                73.9556

                     34                     35                     36
                      A                      A                      A
 Frequencies --    804.3891               859.9322               873.6329
 Red. masses --      2.7848                 1.5287                 2.0036
 Frc consts  --      1.0616                 0.6660                 0.9010
 IR Inten    --      5.7113               102.3627               104.7707

                     37                     38                     39
                      A                      A                      A
 Frequencies --    874.3935               891.5553               903.0896
 Red. masses --      1.4166                 2.2587                 2.5341
 Frc consts  --      0.6382                 1.0578                 1.2177
 IR Inten    --     37.0415                26.4848                47.0089

                     40                     41                     42
                      A                      A                      A
 Frequencies --    936.7643               948.6617               960.9489
 Red. masses --      1.7914                 2.4100                 1.4633
 Frc consts  --      0.9262                 1.2779                 0.7962
 IR Inten    --     24.4152                16.1023                18.4683

                     43                     44                     45
                      A                      A                      A
 Frequencies --    962.3553               983.5053              1000.6139
 Red. masses --      1.6666                 1.2788                 1.8145
 Frc consts  --      0.9094                 0.7288                 1.0704
 IR Inten    --     21.0581               120.1959                29.4905

                     46                     47                     48
                      A                      A                      A
 Frequencies --   1016.7202              1022.6171              1034.6144
 Red. masses --      5.2080                 1.3688                 1.7331
 Frc consts  --      3.1720                 0.8434                 1.0930
 IR Inten    --      0.7325                 0.8543               106.7269

                     49                     50                     51
                      A                      A                      A
 Frequencies --   1043.5741              1052.4184              1057.6710
 Red. masses --      1.3379                 2.1886                 1.6488
 Frc consts  --      0.8585                 1.4282                 1.0867
 IR Inten    --      2.1189                62.8556               177.0152

                     52                     53                     54
                      A                      A                      A
 Frequencies --   1064.9464              1104.7079              1112.1325
 Red. masses --      1.7449                 1.9567                 1.4364
 Frc consts  --      1.1659                 1.4069                 1.0467
 IR Inten    --    240.0867                 2.3894                62.7335

                     55                     56                     57
                      A                      A                      A
 Frequencies --   1134.8534              1171.2455              1180.7626
 Red. masses --      2.5478                 1.1289                 1.5489
 Frc consts  --      1.9333                 0.9125                 1.2723
 IR Inten    --      8.9441                 2.2862                 7.9812

                     58                     59                     60
                      A                      A                      A
 Frequencies --   1184.1604              1196.7507              1210.7866
 Red. masses --      1.1782                 1.6147                 2.0009
 Frc consts  --      0.9734                 1.3625                 1.7283
 IR Inten    --     14.2057                69.9387                13.7617

                     61                     62                     63
                      A                      A                      A
 Frequencies --   1264.2382              1270.5727              1279.8769
 Red. masses --      1.6629                 1.6041                 1.9595
 Frc consts  --      1.5659                 1.5257                 1.8911
 IR Inten    --    239.3626                25.4602               153.9419

                     64                     65                     66
                      A                      A                      A
 Frequencies --   1287.1850              1321.7189              1327.9386
 Red. masses --      1.4692                 1.6149                 1.4012
 Frc consts  --      1.4342                 1.6622                 1.4558
 IR Inten    --    190.6326                80.7156                22.3933

                     67                     68                     69
                      A                      A                      A
 Frequencies --   1329.8489              1343.0765              1350.5414
 Red. masses --      1.3491                 4.6936                 1.4566
 Frc consts  --      1.4057                 4.9883                 1.5653
 IR Inten    --     34.8612                30.0381                20.3529

                     70                     71                     72
                      A                      A                      A
 Frequencies --   1356.1382              1371.4495              1384.5589
 Red. masses --      1.4528                 1.5349                 1.5054
 Frc consts  --      1.5742                 1.7009                 1.7003
 IR Inten    --     16.9069               253.5117                13.8968

                     73                     74                     75
                      A                      A                      A
 Frequencies --   1405.8565              1416.6526              1456.0667
 Red. masses --      2.2315                 1.6388                 2.0162
 Frc consts  --      2.5985                 1.9378                 2.5185
 IR Inten    --    625.1525               230.6771               107.9077

                     76                     77                     78
                      A                      A                      A
 Frequencies --   1468.5507              1482.3648              1490.4557
 Red. masses --      1.0542                 1.0951                 1.4836
 Frc consts  --      1.3395                 1.4178                 1.9417
 IR Inten    --      9.9404                11.8856               164.2100

                     79                     80                     81
                      A                      A                      A
 Frequencies --   1495.1431              1497.4689              1512.0785
 Red. masses --      1.5315                 1.4647                 1.1493
 Frc consts  --      2.0171                 1.9352                 1.5482
 IR Inten    --     56.2093                45.1023                20.2397

                     82                     83                     84
                      A                      A                      A
 Frequencies --   1526.0863              1564.1652              1633.2943
 Red. masses --      2.1225                 2.7222                 1.5352
 Frc consts  --      2.9124                 3.9241                 2.4130
 IR Inten    --    102.5375              1038.7333               112.3863

                     85                     86                     87
                      A                      A                      A
 Frequencies --   1661.2283              1665.0833              1692.6432
 Red. masses --      3.5156                 5.8843                 3.8659
 Frc consts  --      5.7162                 9.6121                 6.5257
 IR Inten    --    280.8788                27.4769               743.6968

                     88                     89                     90
                      A                      A                      A
 Frequencies --   1775.2650              3052.7758              3061.4561
 Red. masses --      4.5461                 1.0369                 1.0695
 Frc consts  --      8.4413                 5.6932                 5.9061
 IR Inten    --    169.6410                32.1853                34.6563

                     91                     92                     93
                      A                      A                      A
 Frequencies --   3078.7524              3089.0611              3108.6033
 Red. masses --      1.0679                 1.0661                 1.1002
 Frc consts  --      5.9637                 5.9936                 6.2643
 IR Inten    --      9.5258                37.4975                 6.4680

                     94                     95                     96
                      A                      A                      A
 Frequencies --   3117.7526              3138.8439              3143.6951
 Red. masses --      1.0850                 1.0959                 1.1015
 Frc consts  --      6.2141                 6.3616                 6.4136
 IR Inten    --     23.8589                 0.8047                15.3593

                     97                     98                     99
                      A                      A                      A
 Frequencies --   3153.8433              3171.9802              3190.0175
 Red. masses --      1.1002                 1.0992                 1.0937
 Frc consts  --      6.4478                 6.5159                 6.5572
 IR Inten    --     23.3586                 6.2495                 9.6403

                    100                    101                    102
                      A                      A                      A
 Frequencies --   3198.2912              3206.2375              3212.5135
 Red. masses --      1.0868                 1.0886                 1.0892
 Frc consts  --      6.5502                 6.5932                 6.6231
 IR Inten    --      9.1349                 1.6443                 1.8954

                    103                    104                    105
                      A                      A                      A
 Frequencies --   3220.9670              3230.4383              3236.3021
 Red. masses --      1.0927                 1.0959                 1.0965
 Frc consts  --      6.6792                 6.7382                 6.7664
 IR Inten    --      5.1336                 6.6685                 6.3252

 - Thermochemistry -
 -------------------
 Temperature   298.150 Kelvin.  Pressure   1.00000 Atm.
 Atom     1 has atomic number  1 and mass   1.00783

 Molecular mass:   262.13174 amu.
 Principal axes and moments of inertia in atomic units:
                           1         2         3
     Eigenvalues --  3662.515635363.562056841.03630
           X            0.99984   0.01580   0.00806
           Y           -0.01568   0.99977  -0.01489
           Z           -0.00829   0.01476   0.99986
 This molecule is an asymmetric top.
 Rotational symmetry number  1.
 Warning -- assumption of classical behavior for rotation
           may cause significant error
 Rotational temperatures (Kelvin)      0.02365     0.01615     0.01266
 Rotational constants (GHZ):           0.49276     0.33648     0.26381
    1 imaginary frequencies ignored.
 Zero-point vibrational energy     799429.9 (Joules/Mol)
                                  191.06833 (Kcal/Mol)
 Warning -- explicit consideration of  26 degrees of freedom as
           vibrations may cause significant error
 Vibrational temperatures:     56.06    72.49    89.88   115.99   137.04
          (Kelvin)            205.85   211.65   219.04   226.71   264.07
                              339.06   359.59   376.63   418.29   457.97
                              511.92   537.68   547.05   580.43   607.69
                              651.61   706.47   723.24   784.04   839.52
                              843.87   898.72   923.54  1026.72  1029.97
                             1106.15  1145.11  1157.34  1237.25  1256.96
                             1258.06  1282.75  1299.34  1347.79  1364.91
                             1382.59  1384.61  1415.04  1439.66  1462.83
                             1471.32  1488.58  1501.47  1514.20  1521.75
                             1532.22  1589.43  1600.11  1632.80  1685.16
                             1698.85  1703.74  1721.86  1742.05  1818.96
                             1828.07  1841.46  1851.97  1901.66  1910.61
                             1913.36  1932.39  1943.13  1951.18  1973.21
                             1992.07  2022.71  2038.25  2094.96  2112.92
                             2132.79  2144.43  2151.18  2154.52  2175.54
                             2195.70  2250.48  2349.95  2390.14  2395.68
                             2435.34  2554.21  4392.26  4404.75  4429.64
                             4444.47  4472.59  4485.75  4516.10  4523.08
                             4537.68  4563.77  4589.72  4601.63  4613.06
                             4622.09  4634.25  4647.88  4656.32

 Zero-point correction=                           0.304487 (Hartree/Particle)
 Thermal correction to Energy=                    0.321508
 Thermal correction to Enthalpy=                  0.322452
 Thermal correction to Gibbs Free Energy=         0.259591
 Sum of electronic and zero-point Energies=           -879.100651
 Sum of electronic and thermal Energies=              -879.083630
 Sum of electronic and thermal Enthalpies=            -879.082686
 Sum of electronic and thermal Free Energies=         -879.145547

                     E (Thermal)             CV                S
                      KCal/Mol        Cal/Mol-Kelvin    Cal/Mol-Kelvin
 Total                  201.749             66.139            132.302
 Electronic               0.000              0.000              0.000
 Translational            0.889              2.981             42.591
 Rotational               0.889              2.981             33.263
 Vibrational            199.972             60.177             56.448
 Vibration     1          0.594              1.981              5.311
 Vibration     2          0.595              1.977              4.802
 Vibration     3          0.597              1.972              4.378
 Vibration     4          0.600              1.962              3.876
 Vibration     5          0.603              1.953              3.549
 Vibration     6          0.616              1.910              2.762
 Vibration     7          0.617              1.906              2.709
 Vibration     8          0.619              1.900              2.644
 Vibration     9          0.621              1.894              2.579
 Vibration    10          0.631              1.862              2.292
 Vibration    11          0.655              1.786              1.835
 Vibration    12          0.663              1.763              1.731
 Vibration    13          0.669              1.743              1.650
 Vibration    14          0.687              1.691              1.470
 Vibration    15          0.705              1.639              1.319
 Vibration    16          0.731              1.563              1.140
 Vibration    17          0.745              1.526              1.065
 Vibration    18          0.750              1.512              1.038
 Vibration    19          0.769              1.463              0.950
 Vibration    20          0.785              1.422              0.884
 Vibration    21          0.811              1.354              0.787
 Vibration    22          0.847              1.270              0.681
 Vibration    23          0.858              1.244              0.651
 Vibration    24          0.900              1.151              0.555
 Vibration    25          0.940              1.067              0.479
 Vibration    26          0.944              1.061              0.473

 Optimization completed.
    -- Stationary point found.
 Normal termination of Gaussian 16 at Wed Jul 25 08:33:32 2018.
