 Gaussian 16, Revision B.01,
 Gaussian 16:  ES64L-G16RevB.01 20-Dec-2017

 ----------------------------------------------------------------------
 # opt=maxcycles=200 freq=noraman wb97xd/gen geom=connectivity scrf=(so
 lvent=n,n-DiMethylAcetamide,smd)
 ----------------------------------------------------------------------

 -------------------
 Title Card Required
 -------------------
 Symbolic Z-matrix:
 Charge =  0 Multiplicity = 1

 SCF Done:  E(RwB97XD) =  -7646.96410637     A.U. after   17 cycles
 SCF Done:  E(RwB97XD) =  -7646.95269524     A.U. after   18 cycles
 SCF Done:  E(RwB97XD) =  -7646.96504135     A.U. after   15 cycles
 SCF Done:  E(RwB97XD) =  -7646.96516543     A.U. after   16 cycles
 SCF Done:  E(RwB97XD) =  -7646.95991033     A.U. after   16 cycles
 SCF Done:  E(RwB97XD) =  -7646.96555903     A.U. after   14 cycles
 SCF Done:  E(RwB97XD) =  -7646.96186427     A.U. after   17 cycles
 SCF Done:  E(RwB97XD) =  -7646.96564351     A.U. after   13 cycles
 SCF Done:  E(RwB97XD) =  -7646.96565577     A.U. after   13 cycles
 SCF Done:  E(RwB97XD) =  -7646.96566026     A.U. after   13 cycles
 SCF Done:  E(RwB97XD) =  -7646.96566384     A.U. after   13 cycles
 SCF Done:  E(RwB97XD) =  -7646.96566404     A.U. after   10 cycles
 SCF Done:  E(RwB97XD) =  -7646.96566447     A.U. after   10 cycles
 Optimization completed.
    -- Stationary point found.
 Normal termination of Gaussian 16 at Fri Mar  8 12:42:05 2019.

 -------------------------------------------------------------------
 #N Geom=AllCheck Guess=TCheck SCRF=Check GenChk RwB97XD/ChkBas Freq
 -------------------------------------------------------------------

 Structure from the checkpoint file:  "Aro_anti_DATS_NH_TS_opt.chk"
 -------------------
 Title Card Required
 -------------------
 Charge =  0 Multiplicity = 1

                         Standard orientation:
 ---------------------------------------------------------------------
 Center     Atomic      Atomic             Coordinates (Angstroms)
 Number     Number       Type             X           Y           Z
 ---------------------------------------------------------------------
      1          6           0        1.321687    3.058367   -0.004790
      2          6           0        2.702687    3.227921   -0.005681
      3          6           0        3.540557    2.121514   -0.004392
      4          6           0        3.010768    0.832578   -0.002138
      5          6           0        1.630266    0.702984   -0.001367
      6          6           0        0.766247    1.782579   -0.002590
      7          1           0        0.664276    3.920246   -0.005744
      8          1           0        3.125058    4.226136   -0.007342
      9          1           0        4.618164    2.235821   -0.005013
     10          1           0       -0.308687    1.651924   -0.001855
     11         53           0        0.922122   -1.311278    0.002764
     12          6           0        3.905202   -0.389652   -0.000455
     13          8           0        3.264482   -1.500663    0.002151
     14          8           0        5.123115   -0.260282   -0.001617
     15          6           0       -1.045702   -0.728502    0.001692
     16          6           0       -2.224000   -0.460441    0.001098
     17          6           0       -3.610338   -0.108732    0.000362
     18          6           0       -4.286493    0.082237    1.211652
     19          6           0       -4.292182    0.055053   -1.211701
     20          6           0       -5.628904    0.434783    1.205445
     21          1           0       -3.755526   -0.045471    2.148023
     22          6           0       -5.634608    0.407573   -1.207105
     23          1           0       -3.765559   -0.093556   -2.147458
     24          6           0       -6.303474    0.598031   -0.001230
     25          1           0       -6.149515    0.583233    2.144761
     26          1           0       -6.159620    0.534920   -2.147055
     27          1           0       -7.352115    0.874252   -0.001867
 ---------------------------------------------------------------------

 SCF Done:  E(RwB97XD) =  -7646.96566447     A.U. after    1 cycles

 The electronic state is 1-A.
 Alpha  occ. eigenvalues -- **********-176.61552-165.98474-165.98349-165.98191
 Alpha  occ. eigenvalues --  -36.03760 -31.51971 -31.51545 -31.51088 -23.16290
 Alpha  occ. eigenvalues --  -23.16243 -23.15914 -23.15617 -23.15570 -19.22946
 Alpha  occ. eigenvalues --  -19.20481 -10.39561 -10.35425 -10.32528 -10.31472
 Alpha  occ. eigenvalues --  -10.31423 -10.31040 -10.31039 -10.30472 -10.30318
 Alpha  occ. eigenvalues --  -10.30244 -10.30243 -10.29996 -10.29793 -10.29578
 Alpha  occ. eigenvalues --  -10.29570  -6.54429  -4.95039  -4.94197  -4.93055
 Alpha  occ. eigenvalues --   -2.20531  -2.20418  -2.19400  -2.18689  -2.18532
 Alpha  occ. eigenvalues --   -1.16286  -1.07440  -0.98809  -0.98004  -0.90660
 Alpha  occ. eigenvalues --   -0.88638  -0.87436  -0.85997  -0.85030  -0.80771
 Alpha  occ. eigenvalues --   -0.73443  -0.72752  -0.71190  -0.70642  -0.65481
 Alpha  occ. eigenvalues --   -0.64298  -0.61733  -0.57745  -0.57180  -0.56831
 Alpha  occ. eigenvalues --   -0.55690  -0.54374  -0.52994  -0.52959  -0.52251
 Alpha  occ. eigenvalues --   -0.51851  -0.51631  -0.48694  -0.47841  -0.47624
 Alpha  occ. eigenvalues --   -0.45745  -0.44602  -0.44216  -0.43646  -0.43006
 Alpha  occ. eigenvalues --   -0.40974  -0.37751  -0.36626  -0.36066  -0.34757
 Alpha  occ. eigenvalues --   -0.34483  -0.34124  -0.32982  -0.32485
 Alpha virt. eigenvalues --   -0.00309   0.01781   0.03534   0.03854   0.04556
 Alpha virt. eigenvalues --    0.06083   0.06460   0.07439   0.08356   0.08429
 Alpha virt. eigenvalues --    0.08524   0.09052   0.09572   0.10206   0.10271

 Mulliken charges:
               1
     1  C   -0.268128
     2  C   -0.232237
     3  C   -0.612558
     4  C    0.345143
     5  C    0.198633
     6  C   -0.039079
     7  H    0.203743
     8  H    0.201691
     9  H    0.200111
    10  H    0.234603
    11  I    0.970074
    12  C   -0.060910
    13  O   -0.455338
    14  O   -0.443006
    15  C   -0.696604
    16  C    0.923956
    17  C    0.350716
    18  C   -0.539722
    19  C   -0.536734
    20  C   -0.250199
    21  H    0.197066
    22  C   -0.251452
    23  H    0.197098
    24  C   -0.229726
    25  H    0.197170
    26  H    0.197169
    27  H    0.198522
 Sum of Mulliken charges =  -0.00000

 Dipole moment (field-independent basis, Debye):
    X=            -13.0711    Y=              3.6933    Z=              0.0000  Tot=             13.5829
 Quadrupole moment (field-independent basis, Debye-Ang):
   XX=           -155.1300   YY=           -115.0304   ZZ=           -119.6695
   XY=             10.8800   XZ=              0.0324   YZ=              0.0950

  Exact polarizability: 459.495 -15.504 275.945   0.127   0.427 216.862
 Approx polarizability: 324.282 -16.884 212.320   0.097   0.331 174.825

 ******    1 imaginary frequencies (negative Signs) ******

                      1                      2                      3
                      A                      A                      A
 Frequencies --     9.2171                22.6052                27.2444
 Red. masses --      3.9222                 7.1223                 7.8823
 Frc consts  --      0.0002                 0.0021                 0.0034
 IR Inten    --      0.0026                 0.6091                 6.6416

                      4                      5                      6
                      A                      A                      A
 Frequencies --     74.6602               112.4269               117.4113
 Red. masses --      7.3814                 5.6065                 4.4936
 Frc consts  --      0.0242                 0.0418                 0.0365
 IR Inten    --      2.9073                 2.8837                 2.5183

                      7                      8                      9
                      A                      A                      A
 Frequencies --    131.1201               189.5627               195.7767
 Red. masses --     10.8797                 5.9027                 9.4714
 Frc consts  --      0.1102                 0.1250                 0.2139
 IR Inten    --      6.0569                 0.0973                24.4452

                     10                     11                     12
                      A                      A                      A
 Frequencies --    217.9971               245.0381               279.5389
 Red. masses --     17.4336                 7.1234                10.1304
 Frc consts  --      0.4881                 0.2520                 0.4664
 IR Inten    --    209.6476                22.6404                41.6181

                     13                     14                     15
                      A                      A                      A
 Frequencies --    291.3168               316.6612               394.2557
 Red. masses --      9.7126                 8.8927                 5.3254
 Frc consts  --      0.4856                 0.5254                 0.4877
 IR Inten    --     18.1509                 3.6803                 9.7505

                     16                     17                     18
                      A                      A                      A
 Frequencies --    412.4270               431.3909               435.5619
 Red. masses --      2.8549                 9.3953                 3.2320
 Frc consts  --      0.2861                 1.0302                 0.3613
 IR Inten    --      0.0024                 8.5929                 2.5250

                     19                     20                     21
                      A                      A                      A
 Frequencies --    478.8253               546.1658               546.8432
 Red. masses --      4.6802                 8.1307                 7.9947
 Frc consts  --      0.6322                 1.4290                 1.4086
 IR Inten    --      7.1774                 1.7867                 0.0194

                     22                     23                     24
                      A                      A                      A
 Frequencies --    563.7701               579.7501               638.9994
 Red. masses --      4.0101                 8.5265                 6.6254
 Frc consts  --      0.7509                 1.6885                 1.5939
 IR Inten    --     37.9535                28.7745                 0.0863

                     25                     26                     27
                      A                      A                      A
 Frequencies --    660.2823               682.5965               706.6647
 Red. masses --      6.8389                 4.3816                 8.0595
 Frc consts  --      1.7567                 1.2029                 2.3713
 IR Inten    --     13.9125                11.9764                42.9503

                     28                     29                     30
                      A                      A                      A
 Frequencies --    707.8738               765.3754               784.9118
 Red. masses --      1.8492                 1.5633                 1.8045
 Frc consts  --      0.5459                 0.5396                 0.6550
 IR Inten    --     76.8355               153.2651                83.5149

                     31                     32                     33
                      A                      A                      A
 Frequencies --    819.2716               822.9186               850.6601
 Red. masses --      2.9483                 6.3181                 9.8104
 Frc consts  --      1.1659                 2.5209                 4.1826
 IR Inten    --      4.3384                77.0065                91.0295

                     34                     35                     36
                      A                      A                      A
 Frequencies --    873.5086               905.6779               961.6999
 Red. masses --      1.2474                 1.3561                 1.3964
 Frc consts  --      0.5608                 0.6554                 0.7609
 IR Inten    --      0.0008                 0.0030                 6.4738

                     37                     38                     39
                      A                      A                      A
 Frequencies --   1002.0448              1016.3210              1021.3338
 Red. masses --      1.3740                 1.3775                 6.5031
 Frc consts  --      0.8129                 0.8383                 3.9967
 IR Inten    --      1.8716                 0.0041                15.0442

                     40                     41                     42
                      A                      A                      A
 Frequencies --   1021.7088              1033.2612              1034.5023
 Red. masses --      7.1245                 1.3159                 1.3245
 Frc consts  --      4.3818                 0.8278                 0.8351
 IR Inten    --     29.6162                 0.0238                 0.0340

                     43                     44                     45
                      A                      A                      A
 Frequencies --   1057.2096              1066.5809              1109.4512
 Red. masses --      2.1303                 2.1406                 1.5225
 Frc consts  --      1.4029                 1.4347                 1.1041
 IR Inten    --     24.2211                 8.8680                16.3625

                     46                     47                     48
                      A                      A                      A
 Frequencies --   1138.3704              1179.0733              1181.2096
 Red. masses --      1.6825                 1.1096                 1.2532
 Frc consts  --      1.2846                 0.9089                 1.0302
 IR Inten    --      5.1906                 0.9270                 2.9885

                     49                     50                     51
                      A                      A                      A
 Frequencies --   1187.3503              1199.8681              1252.0408
 Red. masses --      2.0607                 1.1147                 3.8946
 Frc consts  --      1.7117                 0.9455                 3.5971
 IR Inten    --     21.3677                 1.8719                15.7251

                     52                     53                     54
                      A                      A                      A
 Frequencies --   1284.5539              1319.2082              1333.9253
 Red. masses --      1.5085                 3.9695                 7.5035
 Frc consts  --      1.4666                 4.0702                 7.8664
 IR Inten    --      7.1866                 5.5249               127.0606

                     55                     56                     57
                      A                      A                      A
 Frequencies --   1353.8577              1368.5255              1479.9434
 Red. masses --      1.5513                 8.3613                 2.2828
 Frc consts  --      1.6753                 9.2263                 2.9458
 IR Inten    --      1.5010               417.7354                77.9893

                     58                     59                     60
                      A                      A                      A
 Frequencies --   1481.5754              1499.0833              1532.8547
 Red. masses --      2.2526                 2.5240                 2.3386
 Frc consts  --      2.9133                 3.3419                 3.2375
 IR Inten    --     12.8389                15.4529                31.3677

                     61                     62                     63
                      A                      A                      A
 Frequencies --   1638.1662              1642.7268              1662.5059
 Red. masses --      6.4325                 5.7996                 7.0131
 Frc consts  --     10.1705                 9.2210                11.4205
 IR Inten    --     42.0314                 0.9734                29.3845

                     64                     65                     66
                      A                      A                      A
 Frequencies --   1670.7568              1726.5090              2287.2213
 Red. masses --      5.9449                12.6806                11.9988
 Frc consts  --      9.7774                22.2704                36.9833
 IR Inten    --      0.1384              1471.8572               336.7472

                     67                     68                     69
                      A                      A                      A
 Frequencies --   3195.2112              3202.8380              3202.9393
 Red. masses --      1.0871                 1.0897                 1.0879
 Frc consts  --      6.5391                 6.5862                 6.5758
 IR Inten    --      0.1000                 1.8081                 3.8360

                     70                     71                     72
                      A                      A                      A
 Frequencies --   3209.6510              3214.0134              3216.6913
 Red. masses --      1.0935                 1.0913                 1.0969
 Frc consts  --      6.6373                 6.6421                 6.6870
 IR Inten    --     10.7765                 3.9302                17.6604

                     73                     74                     75
                      A                      A                      A
 Frequencies --   3222.0090              3222.5035              3227.3299
 Red. masses --      1.1000                 1.0946                 1.0980
 Frc consts  --      6.7282                 6.6973                 6.7381
 IR Inten    --     11.4297                 1.0925                17.0803

 - Thermochemistry -
 -------------------
 Temperature   298.150 Kelvin.  Pressure   1.00000 Atm.
 Atom     1 has atomic number  6 and mass  12.00000

 Molecular mass:   347.96065 amu.
 Principal axes and moments of inertia in atomic units:
                           1         2         3
     Eigenvalues --  2659.23957********************
           X            0.99992   0.01227  -0.00000
           Y           -0.01227   0.99992   0.00035
           Z            0.00001  -0.00035   1.00000
 This molecule is an asymmetric top.
 Rotational symmetry number  1.
 Warning -- assumption of classical behavior for rotation
           may cause significant error
 Rotational temperatures (Kelvin)      0.03257     0.00698     0.00600
 Rotational constants (GHZ):           0.67867     0.14553     0.12510
    1 imaginary frequencies ignored.
 Zero-point vibrational energy     511318.1 (Joules/Mol)
                                  122.20797 (Kcal/Mol)
 Warning -- explicit consideration of  22 degrees of freedom as
           vibrations may cause significant error
 Vibrational temperatures:     32.52    39.20   107.42   161.76   168.93
          (Kelvin)            188.65   272.74   281.68   313.65   352.56
                              402.19   419.14   455.60   567.25   593.39
                              620.68   626.68   688.92   785.81   786.79
                              811.14   834.13   919.38   950.00   982.10
                             1016.73  1018.47  1101.20  1129.31  1178.75
                             1184.00  1223.91  1256.78  1303.07  1383.67
                             1441.72  1462.26  1469.47  1470.01  1486.63
                             1488.42  1521.09  1534.57  1596.25  1637.86
                             1696.42  1699.50  1708.33  1726.34  1801.41
                             1848.19  1898.05  1919.22  1947.90  1969.00
                             2129.31  2131.66  2156.85  2205.44  2356.96
                             2363.52  2391.98  2403.85  2484.06  3290.80
                             4597.20  4608.17  4608.32  4617.97  4624.25
                             4628.10  4635.75  4636.46  4643.41

 Zero-point correction=                           0.194751 (Hartree/Particle)
 Thermal correction to Energy=                    0.209447
 Thermal correction to Enthalpy=                  0.210391
 Thermal correction to Gibbs Free Energy=         0.150127
 Sum of electronic and zero-point Energies=          -7646.770914
 Sum of electronic and thermal Energies=             -7646.756217
 Sum of electronic and thermal Enthalpies=           -7646.755273
 Sum of electronic and thermal Free Energies=        -7646.815538

                     E (Thermal)             CV                S
                      KCal/Mol        Cal/Mol-Kelvin    Cal/Mol-Kelvin
 Total                  131.430             55.994            126.838
 Electronic               0.000              0.000              0.000
 Translational            0.889              2.981             43.435
 Rotational               0.889              2.981             34.519
 Vibrational            129.653             50.033             48.884
 Vibration     1          0.593              1.985              6.391
 Vibration     2          0.593              1.984              6.021
 Vibration     3          0.599              1.966              4.027
 Vibration     4          0.607              1.939              3.227
 Vibration     5          0.608              1.935              3.143
 Vibration     6          0.612              1.922              2.930
 Vibration     7          0.633              1.854              2.232
 Vibration     8          0.636              1.846              2.172
 Vibration     9          0.646              1.814              1.976
 Vibration    10          0.660              1.771              1.766
 Vibration    11          0.680              1.711              1.536
 Vibration    12          0.687              1.690              1.466
 Vibration    13          0.704              1.642              1.327
 Vibration    14          0.761              1.482              0.984
 Vibration    15          0.776              1.443              0.918
 Vibration    16          0.792              1.402              0.854
 Vibration    17          0.796              1.393              0.841
 Vibration    18          0.835              1.297              0.713
 Vibration    19          0.901              1.148              0.552
 Vibration    20          0.902              1.147              0.551
 Vibration    21          0.920              1.110              0.516
 Vibration    22          0.936              1.075              0.486

                           ! Non-Optimized Parameters !
 Normal termination of Gaussian 16 at Fri Mar  8 12:57:21 2019.
