 Gaussian 16, Revision B.01,
 Gaussian 16:  ES64L-G16RevB.01 20-Dec-2017

 ----------------------------------------------------------------------
 # opt=maxcycles=200 freq=noraman wb97xd/6-311+g(d,p) geom=connectivity
  scrf=(solvent=n,n-DiMethylAcetamide,smd)
 ----------------------------------------------------------------------

 -------------------
 Title Card Required
 -------------------
 Symbolic Z-matrix:
 Charge =  0 Multiplicity = 1

 SCF Done:  E(RwB97XD) =  -669.744183112     A.U. after   16 cycles
 SCF Done:  E(RwB97XD) =  -669.744339788     A.U. after   14 cycles
 SCF Done:  E(RwB97XD) =  -669.744455112     A.U. after   14 cycles
 SCF Done:  E(RwB97XD) =  -669.744517011     A.U. after   14 cycles
 SCF Done:  E(RwB97XD) =  -669.744534969     A.U. after   12 cycles
 SCF Done:  E(RwB97XD) =  -669.744537670     A.U. after   12 cycles
 SCF Done:  E(RwB97XD) =  -669.744540383     A.U. after   11 cycles
 SCF Done:  E(RwB97XD) =  -669.744540467     A.U. after   10 cycles
 Optimization completed.
    -- Stationary point found.
 Normal termination of Gaussian 16 at Fri Mar  8 12:24:38 2019.

 ----------------------------------------------------------------------
 #N Geom=AllCheck Guess=TCheck SCRF=Check GenChk RwB97XD/6-311+G(d,p) F
 req
 ----------------------------------------------------------------------

 Structure from the checkpoint file:  "Aro_anti_DATS_NH_TS_opt.chk"
 -------------------
 Title Card Required
 -------------------
 Charge =  0 Multiplicity = 1

                         Standard orientation:
 ---------------------------------------------------------------------
 Center     Atomic      Atomic             Coordinates (Angstroms)
 Number     Number       Type             X           Y           Z
 ---------------------------------------------------------------------
      1          1           0       -2.992505    1.248145    0.006521
      2          6           0       -0.294684    1.199711   -0.003773
      3          6           0       -0.994381   -0.005971    0.000410
      4          6           0       -0.285525   -1.206717   -0.003780
      5          6           0        1.104032   -1.194220   -0.010344
      6          6           0        1.820954    0.003205   -0.010865
      7          6           0        1.095432    1.195153   -0.010510
      8          1           0       -0.826800    2.145272   -0.005337
      9          1           0       -0.812154   -2.155627   -0.005332
     10          1           0        1.639243   -2.138915   -0.016772
     11          1           0        1.624159    2.143580   -0.017074
     12         16           0       -2.776118   -0.079596    0.006027
     13          6           0        3.325751    0.008834    0.014699
     14          1           0        3.695355    0.015788    1.045748
     15          1           0        3.733788   -0.878646   -0.474840
     16          1           0        3.727328    0.893971   -0.484383
 ---------------------------------------------------------------------

 SCF Done:  E(RwB97XD) =  -669.744540467     A.U. after    1 cycles

 The electronic state is 1-A.
 Alpha  occ. eigenvalues --  -89.02397 -10.32807 -10.29645 -10.29253 -10.29205
 Alpha  occ. eigenvalues --  -10.28766 -10.28764 -10.27114  -8.06559  -6.01471
 Alpha  occ. eigenvalues --   -6.01079  -6.00490  -0.97464  -0.90129  -0.85211
 Alpha  occ. eigenvalues --   -0.83313  -0.76244  -0.70943  -0.67412  -0.59032
 Alpha  occ. eigenvalues --   -0.56407  -0.54173  -0.50929  -0.50565  -0.49814
 Alpha  occ. eigenvalues --   -0.46793  -0.46335  -0.44904  -0.42326  -0.41391
 Alpha  occ. eigenvalues --   -0.37609  -0.33821  -0.29221
 Alpha virt. eigenvalues --    0.04824   0.05101   0.05801   0.07283   0.08163
 Alpha virt. eigenvalues --    0.08415   0.10185   0.10266   0.10424   0.10802
 Alpha virt. eigenvalues --    0.11037   0.12720   0.13111   0.14274   0.14404

 Mulliken charges:
               1
     1  H    0.121083
     2  C   -0.178987
     3  C    0.568630
     4  C   -0.352292
     5  C   -0.664426
     6  C    0.941760
     7  C   -0.645251
     8  H    0.190580
     9  H    0.196776
    10  H    0.186018
    11  H    0.186296
    12  S   -0.476755
    13  C   -0.623567
    14  H    0.202727
    15  H    0.173686
    16  H    0.173722
 Sum of Mulliken charges =  -0.00000

 Dipole moment (field-independent basis, Debye):
    X=              1.8625    Y=              1.3065    Z=              0.0513  Tot=              2.2756
 Quadrupole moment (field-independent basis, Debye-Ang):
   XX=            -51.7494   YY=            -47.1890   ZZ=            -60.7801
   XY=             -4.3969   XZ=              0.1341   YZ=              0.0097

  Exact polarizability: 187.297  -1.722 145.536   0.543   0.004  90.343
 Approx polarizability: 135.724  -0.825 116.989   0.334   0.003  72.935

                      1                      2                      3
                      A                      A                      A
 Frequencies --     37.3385               115.2670               161.0307
 Red. masses --      1.0365                 4.6924                 1.0643
 Frc consts  --      0.0009                 0.0367                 0.0163
 IR Inten    --      0.7013                 0.0108                38.8046

                      4                      5                      6
                      A                      A                      A
 Frequencies --    241.8458               303.5870               373.3701
 Red. masses --      4.2512                 4.0054                 3.2165
 Frc consts  --      0.1465                 0.2175                 0.2642
 IR Inten    --      1.8699                 0.1522                 2.3126

                      7                      8                      9
                      A                      A                      A
 Frequencies --    384.8531               414.1026               494.5351
 Red. masses --      6.0809                 2.8810                 2.6048
 Frc consts  --      0.5307                 0.2911                 0.3753
 IR Inten    --      0.4159                 0.3502                47.5338

                     10                     11                     12
                      A                      A                      A
 Frequencies --    637.4137               654.8194               710.8522
 Red. masses --      5.4380                 6.9453                 3.5782
 Frc consts  --      1.3018                 1.7546                 1.0653
 IR Inten    --     13.2332                 0.0178                 0.2705

                     13                     14                     15
                      A                      A                      A
 Frequencies --    819.8898               828.7436               856.7576
 Red. masses --      3.4960                 1.5787                 1.2556
 Frc consts  --      1.3846                 0.6389                 0.5430
 IR Inten    --     18.0378                82.2273                 0.1151

                     16                     17                     18
                      A                      A                      A
 Frequencies --    938.9066               969.6598              1001.3091
 Red. masses --      1.1226                 1.2676                 1.3673
 Frc consts  --      0.5831                 0.7022                 0.8077
 IR Inten    --     12.7190                 0.5488                 0.1251

                     19                     20                     21
                      A                      A                      A
 Frequencies --   1014.8164              1038.8139              1067.8880
 Red. masses --      1.3743                 3.3902                 1.5572
 Frc consts  --      0.8339                 2.1555                 1.0463
 IR Inten    --      2.3970                18.4500                23.4728

                     22                     23                     24
                      A                      A                      A
 Frequencies --   1128.1125              1147.5003              1213.8260
 Red. masses --      3.5430                 1.3176                 1.1137
 Frc consts  --      2.6566                 1.0222                 0.9668
 IR Inten    --     39.4511                20.8254                 0.3729

                     25                     26                     27
                      A                      A                      A
 Frequencies --   1248.1550              1313.0475              1342.8780
 Red. masses --      2.7073                 7.0733                 1.2887
 Frc consts  --      2.4850                 7.1851                 1.3693
 IR Inten    --      6.3066                 2.8403                 2.3899

                     28                     29                     30
                      A                      A                      A
 Frequencies --   1412.7804              1439.7197              1474.7776
 Red. masses --      1.2737                 2.1625                 1.0502
 Frc consts  --      1.4978                 2.6410                 1.3457
 IR Inten    --      0.5217                 0.2047                14.3582

                     31                     32                     33
                      A                      A                      A
 Frequencies --   1479.1373              1541.2165              1637.3960
 Red. masses --      1.1865                 2.4431                 6.3118
 Frc consts  --      1.5294                 3.4192                 9.9704
 IR Inten    --     25.1003               115.9878                 1.0570

                     34                     35                     36
                      A                      A                      A
 Frequencies --   1673.9693              2715.9771              3042.1617
 Red. masses --      6.2349                 1.0384                 1.0389
 Frc consts  --     10.2937                 4.5132                 5.6650
 IR Inten    --      5.2718                 7.1760                41.4908

                     37                     38                     39
                      A                      A                      A
 Frequencies --   3108.8749              3133.1283              3181.9828
 Red. masses --      1.0990                 1.1037                 1.0887
 Frc consts  --      6.2581                 6.3833                 6.4949
 IR Inten    --     25.7774                28.1005                11.4419

                     40                     41                     42
                      A                      A                      A
 Frequencies --   3182.9016              3197.3459              3201.7197
 Red. masses --      1.0891                 1.0960                 1.0959
 Frc consts  --      6.5010                 6.6014                 6.6189
 IR Inten    --     13.9906                22.0868                 3.6484

 - Thermochemistry -
 -------------------
 Temperature   298.150 Kelvin.  Pressure   1.00000 Atm.
 Atom     1 has atomic number  1 and mass   1.00783

 Molecular mass:   124.03467 amu.
 Principal axes and moments of inertia in atomic units:
                           1         2         3
     Eigenvalues --   330.157431857.842962176.75486
           X            0.99997  -0.00828   0.00043
           Y            0.00828   0.99997   0.00008
           Z           -0.00043  -0.00008   1.00000
 This molecule is an asymmetric top.
 Rotational symmetry number  1.
 Rotational temperatures (Kelvin)      0.26234     0.04662     0.03979
 Rotational constants (GHZ):           5.46630     0.97142     0.82910
 Zero-point vibrational energy     334251.0 (Joules/Mol)
                                   79.88791 (Kcal/Mol)
 Warning -- explicit consideration of   9 degrees of freedom as
           vibrations may cause significant error
 Vibrational temperatures:     53.72   165.84   231.69   347.96   436.79
          (Kelvin)            537.20   553.72   595.80   711.53   917.10
                              942.14  1022.76  1179.64  1192.38  1232.68
                             1350.88  1395.12  1440.66  1460.09  1494.62
                             1536.45  1623.10  1651.00  1746.42  1795.82
                             1889.18  1932.10  2032.68  2071.44  2121.88
                             2128.15  2217.47  2355.85  2408.47  3907.69
                             4376.99  4472.98  4507.87  4578.16  4579.49
                             4600.27  4606.56

 Zero-point correction=                           0.127309 (Hartree/Particle)
 Thermal correction to Energy=                    0.135366
 Thermal correction to Enthalpy=                  0.136310
 Thermal correction to Gibbs Free Energy=         0.093802
 Sum of electronic and zero-point Energies=           -669.617231
 Sum of electronic and thermal Energies=              -669.609175
 Sum of electronic and thermal Enthalpies=            -669.608231
 Sum of electronic and thermal Free Energies=         -669.650738

                     E (Thermal)             CV                S
                      KCal/Mol        Cal/Mol-Kelvin    Cal/Mol-Kelvin
 Total                   84.943             29.301             89.465
 Electronic               0.000              0.000              0.000
 Translational            0.889              2.981             40.360
 Rotational               0.889              2.981             28.681
 Vibrational             83.166             23.340             20.424
 Vibration     1          0.594              1.982              5.396
 Vibration     2          0.608              1.937              3.178
 Vibration     3          0.622              1.890              2.538
 Vibration     4          0.658              1.776              1.789
 Vibration     5          0.695              1.667              1.397
 Vibration     6          0.745              1.527              1.066
 Vibration     7          0.754              1.503              1.020
 Vibration     8          0.778              1.440              0.912
 Vibration     9          0.850              1.262              0.672

                           ! Non-Optimized Parameters !
 Normal termination of Gaussian 16 at Fri Mar  8 12:26:10 2019.
