 Gaussian 16, Revision B.01,
 Gaussian 16:  ES64L-G16RevB.01 20-Dec-2017

 ----------------------------------------------------------------------
 # opt=maxcycles=200 freq=noraman wb97xd/6-311+g(d,p) geom=connectivity
  scrf=(solvent=n,n-DiMethylAcetamide,smd)
 ----------------------------------------------------------------------

 -------------------
 Title Card Required
 -------------------
 Symbolic Z-matrix:
 Charge = -1 Multiplicity = 1

 SCF Done:  E(RwB97XD) =  -669.272046974     A.U. after   18 cycles
 SCF Done:  E(RwB97XD) =  -669.273329098     A.U. after   15 cycles
 SCF Done:  E(RwB97XD) =  -669.273442388     A.U. after   14 cycles
 SCF Done:  E(RwB97XD) =  -669.273447829     A.U. after   13 cycles
 Optimization completed.
    -- Stationary point found.
 Normal termination of Gaussian 16 at Fri Mar 15 07:43:02 2019.

 ----------------------------------------------------------------------
 #N Geom=AllCheck Guess=TCheck SCRF=Check GenChk RwB97XD/6-311+G(d,p) F
 req
 ----------------------------------------------------------------------

 Structure from the checkpoint file:  "Aro_anti_DATS_NH_TS_opt.chk"
 -------------------
 Title Card Required
 -------------------
 Charge = -1 Multiplicity = 1

                         Standard orientation:
 ---------------------------------------------------------------------
 Center     Atomic      Atomic             Coordinates (Angstroms)
 Number     Number       Type             X           Y           Z
 ---------------------------------------------------------------------
      1          6           0       -0.328629    1.193042   -0.004797
      2          6           0       -1.074186   -0.000308    0.000123
      3          6           0       -0.327985   -1.193680   -0.004799
      4          6           0        1.062780   -1.190599   -0.011333
      5          6           0        1.792185    0.000265   -0.011736
      6          6           0        1.062553    1.190553   -0.011344
      7          1           0       -0.855589    2.142504   -0.006856
      8          1           0       -0.855111   -2.143071   -0.006870
      9          1           0        1.593069   -2.139857   -0.017629
     10          1           0        1.592148    2.140202   -0.017629
     11         16           0       -2.842224    0.000133    0.007503
     12          6           0        3.298797    0.000264    0.017173
     13          1           0        3.675426    0.003516    1.046407
     14          1           0        3.706224   -0.886521   -0.475798
     15          1           0        3.706315    0.883882   -0.481392
 ---------------------------------------------------------------------

 SCF Done:  E(RwB97XD) =  -669.273447829     A.U. after    1 cycles

 The electronic state is 1-A.
 Alpha  occ. eigenvalues --  -88.91833 -10.29445 -10.27822 -10.27177 -10.27174
 Alpha  occ. eigenvalues --  -10.26621 -10.26617 -10.26519  -7.95900  -5.90882
 Alpha  occ. eigenvalues --   -5.90165  -5.90071  -0.94790  -0.86510  -0.82989
 Alpha  occ. eigenvalues --   -0.78484  -0.70714  -0.68440  -0.64420  -0.55335
 Alpha  occ. eigenvalues --   -0.53731  -0.51793  -0.49551  -0.48564  -0.45587
 Alpha  occ. eigenvalues --   -0.44410  -0.43928  -0.40144  -0.37874  -0.33637
 Alpha  occ. eigenvalues --   -0.32076  -0.25668  -0.23581
 Alpha virt. eigenvalues --    0.06389   0.06497   0.06634   0.07772   0.08823
 Alpha virt. eigenvalues --    0.09412   0.10837   0.10958   0.11119   0.11395
 Alpha virt. eigenvalues --    0.12354   0.13390   0.14755   0.14903   0.15474

 Mulliken charges:
               1
     1  C   -0.463249
     2  C    1.055845
     3  C   -0.462777
     4  C   -0.746089
     5  C    0.919972
     6  C   -0.743549
     7  H    0.176635
     8  H    0.176618
     9  H    0.170990
    10  H    0.171001
    11  S   -1.125029
    12  C   -0.656370
    13  H    0.192218
    14  H    0.166888
    15  H    0.166896
 Sum of Mulliken charges =  -1.00000

 Dipole moment (field-independent basis, Debye):
    X=             12.8847    Y=              0.0005    Z=              0.0215  Tot=             12.8848
 Quadrupole moment (field-independent basis, Debye-Ang):
   XX=            -92.9194   YY=            -57.2586   ZZ=            -64.6624
   XY=             -0.0013   XZ=              0.1968   YZ=              0.0000

  Exact polarizability: 236.163   0.015 167.603   0.345  -0.001 110.076
 Approx polarizability: 158.326   0.005 123.167   0.210  -0.000  81.924

                      1                      2                      3
                      A                      A                      A
 Frequencies --     33.3374               109.5071               248.9711
 Red. masses --      1.0365                 4.7147                 4.7525
 Frc consts  --      0.0007                 0.0333                 0.1736
 IR Inten    --      0.5507                 0.6304                 0.1156

                      4                      5                      6
                      A                      A                      A
 Frequencies --    297.4461               376.7352               386.0125
 Red. masses --      4.0548                 2.9363                 9.6702
 Frc consts  --      0.2114                 0.2455                 0.8490
 IR Inten    --      4.1550                 0.4936                18.1535

                      7                      8                      9
                      A                      A                      A
 Frequencies --    418.8273               505.4230               638.6574
 Red. masses --      2.9523                 2.4634                 5.4092
 Frc consts  --      0.3051                 0.3708                 1.2999
 IR Inten    --      0.0255                44.5483                54.4829

                     10                     11                     12
                      A                      A                      A
 Frequencies --    654.5354               728.6076               815.5719
 Red. masses --      6.9724                 3.3704                 4.8473
 Frc consts  --      1.7599                 1.0542                 1.8997
 IR Inten    --      0.3788                 0.1232                 6.0869

                     13                     14                     15
                      A                      A                      A
 Frequencies --    831.9798               854.2931               966.3517
 Red. masses --      1.5209                 1.2526                 1.2839
 Frc consts  --      0.6203                 0.5386                 0.7064
 IR Inten    --     88.5122                 0.0153                 0.6666

                     16                     17                     18
                      A                      A                      A
 Frequencies --    995.3350              1005.1280              1034.0719
 Red. masses --      1.3608                 1.4155                 2.9869
 Frc consts  --      0.7943                 0.8426                 1.8818
 IR Inten    --      0.1093                 1.7505                 8.4765

                     19                     20                     21
                      A                      A                      A
 Frequencies --   1065.6150              1103.4929              1127.8912
 Red. masses --      1.5274                 4.5032                 1.2928
 Frc consts  --      1.0219                 3.2308                 0.9690
 IR Inten    --     27.4406               234.6564                21.7808

                     22                     23                     24
                      A                      A                      A
 Frequencies --   1198.0563              1243.1925              1281.6188
 Red. masses --      1.1189                 2.6244                 4.6981
 Frc consts  --      0.9463                 2.3898                 4.5466
 IR Inten    --      2.6085                 2.2861                15.4370

                     25                     26                     27
                      A                      A                      A
 Frequencies --   1322.8170              1411.6372              1426.6117
 Red. masses --      1.4567                 1.2736                 2.5530
 Frc consts  --      1.5018                 1.4953                 3.0614
 IR Inten    --      0.1526                 2.6504                 0.4733

                     28                     29                     30
                      A                      A                      A
 Frequencies --   1473.3272              1478.3020              1519.0047
 Red. masses --      1.0467                 1.1108                 2.5330
 Frc consts  --      1.3387                 1.4303                 3.4436
 IR Inten    --     13.3656                18.2236               241.9494

                     31                     32                     33
                      A                      A                      A
 Frequencies --   1607.6584              1662.0081              3033.3404
 Red. masses --      5.9075                 6.1039                 1.0396
 Frc consts  --      8.9959                 9.9340                 5.6359
 IR Inten    --      3.1598                66.2472                74.0274

                     34                     35                     36
                      A                      A                      A
 Frequencies --   3097.0096              3122.6439              3162.4625
 Red. masses --      1.0982                 1.1031                 1.0883
 Frc consts  --      6.2058                 6.3374                 6.4130
 IR Inten    --     34.0179                35.7290                12.5697

                     37                     38                     39
                      A                      A                      A
 Frequencies --   3163.0198              3182.1888              3186.3223
 Red. masses --      1.0880                 1.0942                 1.0947
 Frc consts  --      6.4132                 6.5282                 6.5481
 IR Inten    --     44.8414                71.8635                 0.0698

 - Thermochemistry -
 -------------------
 Temperature   298.150 Kelvin.  Pressure   1.00000 Atm.
 Atom     1 has atomic number  6 and mass  12.00000

 Molecular mass:   123.02685 amu.
 Principal axes and moments of inertia in atomic units:
                           1         2         3
     Eigenvalues --   320.824211853.956672163.52165
           X            1.00000   0.00000   0.00050
           Y           -0.00000   1.00000   0.00000
           Z           -0.00050  -0.00000   1.00000
 This molecule is an asymmetric top.
 Rotational symmetry number  1.
 Rotational temperatures (Kelvin)      0.26997     0.04672     0.04003
 Rotational constants (GHZ):           5.62533     0.97345     0.83417
 Zero-point vibrational energy     309647.5 (Joules/Mol)
                                   74.00752 (Kcal/Mol)
 Warning -- explicit consideration of   8 degrees of freedom as
           vibrations may cause significant error
 Vibrational temperatures:     47.97   157.56   358.21   427.96   542.04
          (Kelvin)            555.39   602.60   727.19   918.89   941.73
                             1048.30  1173.43  1197.03  1229.14  1390.36
                             1432.07  1446.15  1487.80  1533.18  1587.68
                             1622.78  1723.74  1788.68  1843.96  1903.24
                             2031.03  2052.58  2119.79  2126.95  2185.51
                             2313.06  2391.26  4364.30  4455.91  4492.79
                             4550.08  4550.88  4578.46  4584.41

 Zero-point correction=                           0.117938 (Hartree/Particle)
 Thermal correction to Energy=                    0.125330
 Thermal correction to Enthalpy=                  0.126274
 Thermal correction to Gibbs Free Energy=         0.084935
 Sum of electronic and zero-point Energies=           -669.155509
 Sum of electronic and thermal Energies=              -669.148118
 Sum of electronic and thermal Enthalpies=            -669.147174
 Sum of electronic and thermal Free Energies=         -669.188513

                     E (Thermal)             CV                S
                      KCal/Mol        Cal/Mol-Kelvin    Cal/Mol-Kelvin
 Total                   78.646             27.012             87.005
 Electronic               0.000              0.000              0.000
 Translational            0.889              2.981             40.336
 Rotational               0.889              2.981             28.644
 Vibrational             76.868             21.050             18.025
 Vibration     1          0.594              1.983              5.620
 Vibration     2          0.606              1.942              3.278
 Vibration     3          0.662              1.764              1.738
 Vibration     4          0.691              1.678              1.431
 Vibration     5          0.747              1.520              1.052
 Vibration     6          0.755              1.500              1.016
 Vibration     7          0.782              1.429              0.896
 Vibration     8          0.861              1.238              0.645

 Optimization completed.
    -- Stationary point found.
 Normal termination of Gaussian 16 at Fri Mar 15 07:44:51 2019.
